Title: * E:\Eigene Dateien\Visual Studio Projects\git\ltspice2matlab\testdata\XVII\text\dc\dc_stepped.asc
Date: Thu Feb 21 17:02:02 2019
Plotname: DC transfer characteristic
Flags: real forward stepped
No. Variables: 23
No. Points:           44
Offset:   0.0000000000000000e+000
Command: Linear Technology Corporation LTspice XVII -- Alternate Solver
Variables:
	0	i1	current
	1	V(uc1)	voltage
	2	V(ue1)	voltage
	3	V(ue12)	voltage
	4	V(uc2)	voltage
	5	V(ue2)	voltage
	6	V(vee)	voltage
	7	V(vcc)	voltage
	8	V(ued)	voltage
	9	Ic(Q2)	device_current
	10	Ib(Q2)	device_current
	11	Ie(Q2)	device_current
	12	Ic(Q1)	device_current
	13	Ib(Q1)	device_current
	14	Ie(Q1)	device_current
	15	I(I1)	device_current
	16	I(R2)	device_current
	17	I(R1)	device_current
	18	I(E2)	device_current
	19	I(E1)	device_current
	20	I(V1)	device_current
	21	I(Ve)	device_current
	22	I(Vc)	device_current
Values:
0		5.000000000000000e-003
	1.250699313390080e+001
	0.000000000000000e+000
	-6.837132942737632e-001
	1.250699313390080e+001
	0.000000000000000e+000
	-1.500000000000000e+001
	1.500000000000000e+001
	0.000000000000000e+000
	2.493006866103537e-003
	6.993133896463044e-006
	-2.500000000000000e-003
	2.493006866103537e-003
	6.993133896463038e-006
	-2.500000000000000e-003
	5.000000000000000e-003
	2.493006866099201e-003
	2.493006866099201e-003
	-6.993133900799907e-006
	-6.993133900799904e-006
	0.000000000000000e+000
	-5.000000000000000e-003
	-4.986013732207073e-003
1		6.000000000000000e-003
	1.200838057649240e+001
	0.000000000000000e+000
	-6.887315992384475e-001
	1.200838057649240e+001
	0.000000000000000e+000
	-1.500000000000000e+001
	1.500000000000000e+001
	0.000000000000000e+000
	2.991619410730471e-003
	8.380589269528051e-006
	-3.000000000000000e-003
	2.991619410730471e-003
	8.380589269528058e-006
	-3.000000000000000e-003
	6.000000000000000e-003
	2.991619423507600e-003
	2.991619423507601e-003
	-8.380576492399448e-006
	-8.380576492399441e-006
	0.000000000000000e+000
	-6.000000000000000e-003
	-5.983238821460942e-003
2		7.000000000000000e-003
	1.150978890671998e+001
	0.000000000000000e+000
	-6.930252906351871e-001
	1.150978890671998e+001
	0.000000000000000e+000
	-1.500000000000000e+001
	1.500000000000000e+001
	0.000000000000000e+000
	3.490211012635792e-003
	9.788987364208563e-006
	-3.500000000000000e-003
	3.490211012635791e-003
	9.788987364208570e-006
	-3.500000000000000e-003
	7.000000000000000e-003
	3.490211093280023e-003
	3.490211093280023e-003
	-9.788906719976730e-006
	-9.788906719976737e-006
	0.000000000000000e+000
	-7.000000000000000e-003
	-6.980422025271583e-003
3		8.000000000000000e-003
	1.101122074350544e+001
	0.000000000000000e+000
	-6.967774101964293e-001
	1.101122074350544e+001
	0.000000000000000e+000
	-1.500000000000000e+001
	1.500000000000000e+001
	0.000000000000000e+000
	3.988779181758915e-003
	1.122081824108410e-005
	-4.000000000000000e-003
	3.988779181758916e-003
	1.122081824108410e-005
	-4.000000000000000e-003
	8.000000000000000e-003
	3.988779256494556e-003
	3.988779256494556e-003
	-1.122074350544415e-005
	-1.122074350544416e-005
	0.000000000000000e+000
	-8.000000000000000e-003
	-7.977558363517831e-003
4		8.999999999999999e-003
	1.051267804224782e+001
	0.000000000000000e+000
	-7.001261764882686e-001
	1.051267804224782e+001
	0.000000000000000e+000
	-1.500000000000000e+001
	1.500000000000000e+001
	0.000000000000000e+000
	4.487321897061110e-003
	1.267810293889024e-005
	-4.500000000000000e-003
	4.487321897061110e-003
	1.267810293889024e-005
	-4.500000000000000e-003
	8.999999999999999e-003
	4.487321957752183e-003
	4.487321957752183e-003
	-1.267804224781770e-005
	-1.267804224781770e-005
	0.000000000000000e+000
	-8.999999999999999e-003
	-8.974643794122220e-003
5		1.000000000000000e-002
	1.001416252818548e+001
	0.000000000000000e+000
	-7.031570131401077e-001
	1.001416252818548e+001
	0.000000000000000e+000
	-1.500000000000000e+001
	1.500000000000000e+001
	0.000000000000000e+000
	4.985837420327446e-003
	1.416257967255315e-005
	-5.000000000000000e-003
	4.985837420327447e-003
	1.416257967255315e-005
	-5.000000000000000e-003
	1.000000000000000e-002
	4.985837471814518e-003
	4.985837471814518e-003
	-1.416252818548225e-005
	-1.416252818548224e-005
	0.000000000000000e+000
	-1.000000000000000e-002
	-9.971674840654893e-003
6		1.100000000000000e-002
	9.515675765657171e+000
	0.000000000000000e+000
	-7.059305297734767e-001
	9.515675765657171e+000
	0.000000000000000e+000
	-1.500000000000000e+001
	1.500000000000000e+001
	0.000000000000000e+000
	5.484324190406756e-003
	1.567580959324468e-005
	-5.500000000000000e-003
	5.484324190406755e-003
	1.567580959324466e-005
	-5.500000000000000e-003
	1.100000000000000e-002
	5.484324234342829e-003
	5.484324234342828e-003
	-1.567576565717207e-005
	-1.567576565717206e-005
	0.000000000000000e+000
	-1.100000000000000e-002
	-1.096864838081351e-002
7		1.200000000000000e-002
	9.017219203640769e+000
	0.000000000000000e+000
	-7.084918254243769e-001
	9.017219203640771e+000
	0.000000000000000e+000
	-1.500000000000000e+001
	1.500000000000000e+001
	0.000000000000000e+000
	5.982780758723738e-003
	1.721924127626257e-005
	-6.000000000000000e-003
	5.982780758723738e-003
	1.721924127626257e-005
	-6.000000000000000e-003
	1.200000000000000e-002
	5.982780796359230e-003
	5.982780796359230e-003
	-1.721920364076951e-005
	-1.721920364076949e-005
	0.000000000000000e+000
	-1.200000000000000e-002
	-1.196556151744748e-002
8		1.300000000000000e-002
	8.518794219874206e+000
	0.000000000000000e+000
	-7.108752316349124e-001
	8.518794219874206e+000
	0.000000000000000e+000
	-1.500000000000000e+001
	1.500000000000000e+001
	0.000000000000000e+000
	6.481205747664476e-003
	1.879425233552394e-005
	-6.500000000000000e-003
	6.481205747664476e-003
	1.879425233552393e-005
	-6.500000000000000e-003
	1.300000000000000e-002
	6.481205780125795e-003
	6.481205780125795e-003
	-1.879421987420553e-005
	-1.879421987420553e-005
	0.000000000000000e+000
	-1.300000000000000e-002
	-1.296241149532895e-002
9		1.400000000000000e-002
	8.020402149388405e+000
	0.000000000000000e+000
	-7.131074686485285e-001
	8.020402149388405e+000
	0.000000000000000e+000
	-1.500000000000000e+001
	1.500000000000000e+001
	0.000000000000000e+000
	6.979597822407162e-003
	2.040217759283887e-005
	-7.000000000000000e-003
	6.979597822407162e-003
	2.040217759283887e-005
	-7.000000000000000e-003
	1.400000000000000e-002
	6.979597850611596e-003
	6.979597850611595e-003
	-2.040214938840498e-005
	-2.040214938840499e-005
	0.000000000000000e+000
	-1.400000000000000e-002
	-1.395919564481432e-002
10		1.500000000000000e-002
	7.522044304284979e+000
	0.000000000000000e+000
	-7.152097394827520e-001
	7.522044304284979e+000
	0.000000000000000e+000
	-1.500000000000000e+001
	1.500000000000000e+001
	0.000000000000000e+000
	7.477955671035911e-003
	2.204432896408911e-005
	-7.500000000000000e-003
	7.477955671035911e-003
	2.204432896408911e-005
	-7.500000000000000e-003
	1.500000000000000e-002
	7.477955695715022e-003
	7.477955695715022e-003
	-2.204430428497865e-005
	-2.204430428497865e-005
	0.000000000000000e+000
	-1.500000000000000e-002
	-1.495591134207182e-002
11		5.000000000000000e-003
	1.126065760855964e+001
	0.000000000000000e+000
	-6.841541034902617e-001
	1.126065760855964e+001
	0.000000000000000e+000
	-1.500000000000000e+001
	1.500000000000000e+001
	0.000000000000000e+000
	2.492894927628786e-003
	7.105072371215212e-006
	-2.500000000000000e-003
	2.492894927628786e-003
	7.105072371215212e-006
	-2.500000000000000e-003
	5.000000000000000e-003
	2.492894927626908e-003
	2.492894927626908e-003
	-7.105072373091585e-006
	-7.105072373091585e-006
	0.000000000000000e+000
	-5.000000000000000e-003
	-4.985789855257571e-003
12		6.000000000000000e-003
	1.051281695088322e+001
	0.000000000000000e+000
	-6.892674964824254e-001
	1.051281695088322e+001
	0.000000000000000e+000
	-1.500000000000000e+001
	1.500000000000000e+001
	0.000000000000000e+000
	2.991455351494104e-003
	8.544648505896654e-006
	-3.000000000000000e-003
	2.991455351494104e-003
	8.544648505896641e-006
	-3.000000000000000e-003
	6.000000000000000e-003
	2.991455366077855e-003
	2.991455366077855e-003
	-8.544633922144514e-006
	-8.544633922144520e-006
	0.000000000000000e+000
	-6.000000000000000e-003
	-5.982910702988207e-003
13		7.000000000000000e-003
	9.765024901920377e+000
	0.000000000000000e+000
	-6.936587064169737e-001
	9.765024901920377e+000
	0.000000000000000e+000
	-1.500000000000000e+001
	1.500000000000000e+001
	0.000000000000000e+000
	3.489983310321518e-003
	1.001668967848290e-005
	-3.500000000000000e-003
	3.489983310321518e-003
	1.001668967848289e-005
	-3.500000000000000e-003
	7.000000000000000e-003
	3.489983398719749e-003
	3.489983398719749e-003
	-1.001660128025158e-005
	-1.001660128025158e-005
	0.000000000000000e+000
	-7.000000000000000e-003
	-6.979966620643034e-003
14		8.000000000000000e-003
	9.017286630607455e+000
	0.000000000000000e+000
	-6.975109482078672e-001
	9.017286630607455e+000
	0.000000000000000e+000
	-1.500000000000000e+001
	1.500000000000000e+001
	0.000000000000000e+000
	3.988475498441704e-003
	1.152450155829692e-005
	-4.000000000000000e-003
	3.988475498441703e-003
	1.152450155829692e-005
	-4.000000000000000e-003
	8.000000000000000e-003
	3.988475579595031e-003
	3.988475579595030e-003
	-1.152442040497006e-005
	-1.152442040497007e-005
	0.000000000000000e+000
	-8.000000000000000e-003
	-7.976950996883406e-003
15		8.999999999999999e-003
	8.269606373426631e+000
	0.000000000000000e+000
	-7.009624367772764e-001
	8.269606373426630e+000
	0.000000000000000e+000
	-1.500000000000000e+001
	1.500000000000000e+001
	0.000000000000000e+000
	4.486929018694651e-003
	1.307098130534933e-005
	-4.500000000000000e-003
	4.486929018694651e-003
	1.307098130534933e-005
	-4.500000000000000e-003
	8.999999999999999e-003
	4.486929084382247e-003
	4.486929084382247e-003
	-1.307091561775349e-005
	-1.307091561775349e-005
	0.000000000000000e+000
	-8.999999999999999e-003
	-8.973858037389301e-003
16		1.000000000000000e-002
	7.521988126572065e+000
	0.000000000000000e+000
	-7.040986629765733e-001
	7.521988126572065e+000
	0.000000000000000e+000
	-1.500000000000000e+001
	1.500000000000000e+001
	0.000000000000000e+000
	4.985341193296610e-003
	1.465880670339046e-005
	-5.000000000000000e-003
	4.985341193296610e-003
	1.465880670339046e-005
	-5.000000000000000e-003
	1.000000000000000e-002
	4.985341248951957e-003
	4.985341248951957e-003
	-1.465875104804332e-005
	-1.465875104804333e-005
	0.000000000000000e+000
	-1.000000000000000e-002
	-9.970682386593219e-003
17		1.100000000000000e-002
	6.774435747190535e+000
	0.000000000000000e+000
	-7.069803175673339e-001
	6.774435747190535e+000
	0.000000000000000e+000
	-1.500000000000000e+001
	1.500000000000000e+001
	0.000000000000000e+000
	5.483709454406342e-003
	1.629054559365827e-005
	-5.500000000000000e-003
	5.483709454406342e-003
	1.629054559365827e-005
	-5.500000000000000e-003
	1.100000000000000e-002
	5.483709501872977e-003
	5.483709501872977e-003
	-1.629049812702316e-005
	-1.629049812702316e-005
	0.000000000000000e+000
	-1.100000000000000e-002
	-1.096741890881268e-002
18		1.200000000000000e-002
	6.026953025991368e+000
	0.000000000000000e+000
	-7.096525800492241e-001
	6.026953025991369e+000
	0.000000000000000e+000
	-1.500000000000000e+001
	1.500000000000000e+001
	0.000000000000000e+000
	5.982031275363026e-003
	1.796872463697353e-005
	-6.000000000000000e-003
	5.982031275363026e-003
	1.796872463697354e-005
	-6.000000000000000e-003
	1.200000000000000e-002
	5.982031316005754e-003
	5.982031316005754e-003
	-1.796868399424533e-005
	-1.796868399424533e-005
	0.000000000000000e+000
	-1.200000000000000e-002
	-1.196406255072605e-002
19		1.300000000000000e-002
	5.279543761057831e+000
	0.000000000000000e+000
	-7.121498645865062e-001
	5.279543761057831e+000
	0.000000000000000e+000
	-1.500000000000000e+001
	1.500000000000000e+001
	0.000000000000000e+000
	6.480304124261746e-003
	1.969587573825335e-005
	-6.500000000000000e-003
	6.480304124261747e-003
	1.969587573825336e-005
	-6.500000000000000e-003
	1.300000000000000e-002
	6.480304159294779e-003
	6.480304159294779e-003
	-1.969584070522099e-005
	-1.969584070522099e-005
	0.000000000000000e+000
	-1.300000000000000e-002
	-1.296060824852349e-002
20		1.400000000000000e-002
	4.532211808704612e+000
	0.000000000000000e+000
	-7.144989769371999e-001
	4.532211808704612e+000
	0.000000000000000e+000
	-1.500000000000000e+001
	1.500000000000000e+001
	0.000000000000000e+000
	6.978525430457240e-003
	2.147456954276024e-005
	-7.000000000000000e-003
	6.978525430457240e-003
	2.147456954276026e-005
	-7.000000000000000e-003
	1.400000000000000e-002
	6.978525460863591e-003
	6.978525460863592e-003
	-2.147453913640830e-005
	-2.147453913640829e-005
	0.000000000000000e+000
	-1.400000000000000e-002
	-1.395705086091448e-002
21		1.500000000000000e-002
	3.784961121917113e+000
	0.000000000000000e+000
	-7.167212086914411e-001
	3.784961121917113e+000
	0.000000000000000e+000
	-1.500000000000000e+001
	1.500000000000000e+001
	0.000000000000000e+000
	7.476692558827451e-003
	2.330744117254868e-005
	-7.500000000000000e-003
	7.476692558827451e-003
	2.330744117254869e-005
	-7.500000000000000e-003
	1.500000000000000e-002
	7.476692585388591e-003
	7.476692585388591e-003
	-2.330741461140886e-005
	-2.330741461140886e-005
	0.000000000000000e+000
	-1.500000000000000e-002
	-1.495338511765490e-002
22		5.000000000000000e-003
	1.051291329277725e+001
	0.000000000000000e+000
	-6.844222157349647e-001
	1.051291329277725e+001
	0.000000000000000e+000
	-1.500000000000000e+001
	1.500000000000000e+001
	0.000000000000000e+000
	2.492825948457235e-003
	7.174051542766035e-006
	-2.500000000000000e-003
	2.492825948457235e-003
	7.174051542766035e-006
	-2.500000000000000e-003
	5.000000000000000e-003
	2.492825948457082e-003
	2.492825948457081e-003
	-7.174051542918760e-006
	-7.174051542918760e-006
	0.000000000000000e+000
	-5.000000000000000e-003
	-4.985651896914470e-003
23		6.000000000000000e-003
	9.615563378032384e+000
	0.000000000000000e+000
	-6.895944033060224e-001
	9.615563378032384e+000
	0.000000000000000e+000
	-1.500000000000000e+001
	1.500000000000000e+001
	0.000000000000000e+000
	2.991353663158415e-003
	8.646336841585786e-006
	-3.000000000000000e-003
	2.991353663158415e-003
	8.646336841585786e-006
	-3.000000000000000e-003
	6.000000000000000e-003
	2.991353678870898e-003
	2.991353678870897e-003
	-8.646321129102768e-006
	-8.646321129102761e-006
	0.000000000000000e+000
	-6.000000000000000e-003
	-5.982707326316829e-003
24		7.000000000000000e-003
	8.718285445858388e+000
	0.000000000000000e+000
	-6.940462660326131e-001
	8.718285445858388e+000
	0.000000000000000e+000
	-1.500000000000000e+001
	1.500000000000000e+001
	0.000000000000000e+000
	3.489841325742356e-003
	1.015867425764447e-005
	-3.500000000000000e-003
	3.489841325742356e-003
	1.015867425764446e-005
	-3.500000000000000e-003
	7.000000000000000e-003
	3.489841418967562e-003
	3.489841418967562e-003
	-1.015858103243866e-005
	-1.015858103243866e-005
	0.000000000000000e+000
	-7.000000000000000e-003
	-6.979682651484713e-003
25		8.000000000000000e-003
	7.821086909533144e+000
	0.000000000000000e+000
	-6.979611680697688e-001
	7.821086909533144e+000
	0.000000000000000e+000
	-1.500000000000000e+001
	1.500000000000000e+001
	0.000000000000000e+000
	3.988284965139416e-003
	1.171503486058470e-005
	-4.000000000000000e-003
	3.988284965139415e-003
	1.171503486058470e-005
	-4.000000000000000e-003
	8.000000000000000e-003
	3.988285050259365e-003
	3.988285050259365e-003
	-1.171494974063616e-005
	-1.171494974063615e-005
	0.000000000000000e+000
	-8.000000000000000e-003
	-7.976569930278831e-003
26		8.999999999999999e-003
	6.923974152880706e+000
	0.000000000000000e+000
	-7.014773457086929e-001
	6.923974152880705e+000
	0.000000000000000e+000
	-1.500000000000000e+001
	1.500000000000000e+001
	0.000000000000000e+000
	4.486680957430194e-003
	1.331904256980636e-005
	-4.500000000000000e-003
	4.486680957430194e-003
	1.331904256980636e-005
	-4.500000000000000e-003
	8.999999999999999e-003
	4.486681026177386e-003
	4.486681026177386e-003
	-1.331897382261425e-005
	-1.331897382261424e-005
	0.000000000000000e+000
	-8.999999999999999e-003
	-8.973361914860388e-003
27		1.000000000000000e-002
	6.026953397999255e+000
	0.000000000000000e+000
	-7.046803646045163e-001
	6.026953397999254e+000
	0.000000000000000e+000
	-1.500000000000000e+001
	1.500000000000000e+001
	0.000000000000000e+000
	4.985025831825708e-003
	1.497416817429297e-005
	-5.000000000000000e-003
	4.985025831825708e-003
	1.497416817429297e-005
	-5.000000000000000e-003
	1.000000000000000e-002
	4.985025890000414e-003
	4.985025890000414e-003
	-1.497410999958611e-005
	-1.497410999958610e-005
	0.000000000000000e+000
	-1.000000000000000e-002
	-9.970051663651416e-003
28		1.100000000000000e-002
	5.130030830840095e+000
	0.000000000000000e+000
	-7.076310024382345e-001
	5.130030830840095e+000
	0.000000000000000e+000
	-1.500000000000000e+001
	1.500000000000000e+001
	0.000000000000000e+000
	5.483316155526316e-003
	1.668384447368504e-005
	-5.500000000000000e-003
	5.483316155526315e-003
	1.668384447368504e-005
	-5.500000000000000e-003
	1.100000000000000e-002
	5.483316205088836e-003
	5.483316205088836e-003
	-1.668379491116388e-005
	-1.668379491116386e-005
	0.000000000000000e+000
	-1.100000000000000e-002
	-1.096663231105263e-002
29		1.200000000000000e-002
	4.233212698472317e+000
	0.000000000000000e+000
	-7.103745272664274e-001
	4.233212698472317e+000
	0.000000000000000e+000
	-1.500000000000000e+001
	1.500000000000000e+001
	0.000000000000000e+000
	5.981548458463599e-003
	1.845154153640100e-005
	-6.000000000000000e-003
	5.981548458463599e-003
	1.845154153640102e-005
	-6.000000000000000e-003
	1.200000000000000e-002
	5.981548500848712e-003
	5.981548500848712e-003
	-1.845149915128750e-005
	-1.845149915128750e-005
	0.000000000000000e+000
	-1.200000000000000e-002
	-1.196309691692720e-002
30		1.300000000000000e-002
	3.336505411113219e+000
	0.000000000000000e+000
	-7.129454456495570e-001
	3.336505411113219e+000
	0.000000000000000e+000
	-1.500000000000000e+001
	1.500000000000000e+001
	0.000000000000000e+000
	6.479719179573108e-003
	2.028082042689177e-005
	-6.500000000000000e-003
	6.479719179573108e-003
	2.028082042689177e-005
	-6.500000000000000e-003
	1.300000000000000e-002
	6.479719216048212e-003
	6.479719216048212e-003
	-2.028078395178871e-005
	-2.028078395178873e-005
	0.000000000000000e+000
	-1.300000000000000e-002
	-1.295943835914622e-002
31		1.400000000000000e-002
	2.439915617898284e+000
	0.000000000000000e+000
	-7.153706602803590e-001
	2.439915617898284e+000
	0.000000000000000e+000
	-1.500000000000000e+001
	1.500000000000000e+001
	0.000000000000000e+000
	6.977824625135755e-003
	2.217537486424504e-005
	-7.000000000000000e-003
	6.977824625135755e-003
	2.217537486424502e-005
	-7.000000000000000e-003
	1.400000000000000e-002
	6.977824656723176e-003
	6.977824656723176e-003
	-2.217534327682445e-005
	-2.217534327682446e-005
	0.000000000000000e+000
	-1.400000000000000e-002
	-1.395564925027151e-002
32		1.500000000000000e-002
	1.543450269383888e+000
	0.000000000000000e+000
	-7.176715645233111e-001
	1.543450269383888e+000
	0.000000000000000e+000
	-1.500000000000000e+001
	1.500000000000000e+001
	0.000000000000000e+000
	7.475860933942786e-003
	2.413906605721438e-005
	-7.500000000000000e-003
	7.475860933942786e-003
	2.413906605721438e-005
	-7.500000000000000e-003
	1.500000000000000e-002
	7.475860961453395e-003
	7.475860961453395e-003
	-2.413903854660452e-005
	-2.413903854660452e-005
	0.000000000000000e+000
	-1.500000000000000e-002
	-1.495172186788557e-002
33		5.000000000000000e-003
	9.515990106633078e+000
	0.000000000000000e+000
	-6.847840466980197e-001
	9.515990106633078e+000
	0.000000000000000e+000
	-1.500000000000000e+001
	1.500000000000000e+001
	0.000000000000000e+000
	2.492731769709789e-003
	7.268230290211243e-006
	-2.500000000000000e-003
	2.492731769709789e-003
	7.268230290211236e-006
	-2.500000000000000e-003
	5.000000000000000e-003
	2.492731769712237e-003
	2.492731769712238e-003
	-7.268230287762212e-006
	-7.268230287762212e-006
	0.000000000000000e+000
	-5.000000000000000e-003
	-4.985463539419577e-003
34		6.000000000000000e-003
	8.419328961136470e+000
	0.000000000000000e+000
	-6.900367532674994e-001
	8.419328961136470e+000
	0.000000000000000e+000
	-1.500000000000000e+001
	1.500000000000000e+001
	0.000000000000000e+000
	2.991214091305321e-003
	8.785908694679080e-006
	-3.000000000000000e-003
	2.991214091305321e-003
	8.785908694679073e-006
	-3.000000000000000e-003
	6.000000000000000e-003
	2.991214108574332e-003
	2.991214108574332e-003
	-8.785891425667497e-006
	-8.785891425667504e-006
	0.000000000000000e+000
	-6.000000000000000e-003
	-5.982428182610641e-003
35		7.000000000000000e-003
	7.322779948615958e+000
	0.000000000000000e+000
	-6.945721241201023e-001
	7.322779948615958e+000
	0.000000000000000e+000
	-1.500000000000000e+001
	1.500000000000000e+001
	0.000000000000000e+000
	3.489645378047456e-003
	1.035462195254458e-005
	-3.500000000000000e-003
	3.489645378047456e-003
	1.035462195254458e-005
	-3.500000000000000e-003
	7.000000000000000e-003
	3.489645477901837e-003
	3.489645477901837e-003
	-1.035452209816281e-005
	-1.035452209816281e-005
	0.000000000000000e+000
	-7.000000000000000e-003
	-6.979290756094911e-003
36		8.000000000000000e-003
	6.226354643288209e+000
	0.000000000000000e+000
	-6.985737888798159e-001
	6.226354643288209e+000
	0.000000000000000e+000
	-1.500000000000000e+001
	1.500000000000000e+001
	0.000000000000000e+000
	3.988020526166066e-003
	1.197947383393417e-005
	-4.000000000000000e-003
	3.988020526166066e-003
	1.197947383393418e-005
	-4.000000000000000e-003
	8.000000000000000e-003
	3.988020616687178e-003
	3.988020616687178e-003
	-1.197938331282205e-005
	-1.197938331282205e-005
	0.000000000000000e+000
	-8.000000000000000e-003
	-7.976041052332131e-003
37		8.999999999999999e-003
	5.130063598589737e+000
	0.000000000000000e+000
	-7.021800530458985e-001
	5.130063598589737e+000
	0.000000000000000e+000
	-1.500000000000000e+001
	1.500000000000000e+001
	0.000000000000000e+000
	4.486334655049240e-003
	1.366534495076042e-005
	-4.500000000000000e-003
	4.486334655049240e-003
	1.366534495076040e-005
	-4.500000000000000e-003
	8.999999999999999e-003
	4.486334727913756e-003
	4.486334727913756e-003
	-1.366527208624406e-005
	-1.366527208624406e-005
	0.000000000000000e+000
	-8.999999999999999e-003
	-8.972669310098479e-003
38		1.000000000000000e-002
	4.033917484414954e+000
	0.000000000000000e+000
	-7.054766381704611e-001
	4.033917484414955e+000
	0.000000000000000e+000
	-1.500000000000000e+001
	1.500000000000000e+001
	0.000000000000000e+000
	4.984582900121962e-003
	1.541709987803795e-005
	-5.000000000000000e-003
	4.984582900121963e-003
	1.541709987803796e-005
	-5.000000000000000e-003
	1.000000000000000e-002
	4.984582961629566e-003
	4.984582961629566e-003
	-1.541703837043372e-005
	-1.541703837043373e-005
	0.000000000000000e+000
	-1.000000000000000e-002
	-9.969165800243924e-003
39		1.100000000000000e-002
	2.937927263543470e+000
	0.000000000000000e+000
	-7.085245007514754e-001
	2.937927263543470e+000
	0.000000000000000e+000
	-1.500000000000000e+001
	1.500000000000000e+001
	0.000000000000000e+000
	5.482760282485444e-003
	1.723971751455621e-005
	-5.500000000000000e-003
	5.482760282485444e-003
	1.723971751455622e-005
	-5.500000000000000e-003
	1.100000000000000e-002
	5.482760334752968e-003
	5.482760334752968e-003
	-1.723966524703195e-005
	-1.723966524703195e-005
	0.000000000000000e+000
	-1.100000000000000e-002
	-1.096552056497089e-002
40		1.200000000000000e-002
	1.842104346355957e+000
	0.000000000000000e+000
	-7.113690946990010e-001
	1.842104346355958e+000
	0.000000000000000e+000
	-1.500000000000000e+001
	1.500000000000000e+001
	0.000000000000000e+000
	5.980861616192009e-003
	1.913838380799028e-005
	-6.000000000000000e-003
	5.980861616192009e-003
	1.913838380799028e-005
	-6.000000000000000e-003
	1.200000000000000e-002
	5.980861660747292e-003
	5.980861660747293e-003
	-1.913833925270798e-005
	-1.913833925270797e-005
	0.000000000000000e+000
	-1.200000000000000e-002
	-1.196172323238402e-002
41		1.300000000000000e-002
	7.464607599305995e-001
	0.000000000000000e+000
	-7.140451233072366e-001
	7.464607599305994e-001
	0.000000000000000e+000
	-1.500000000000000e+001
	1.500000000000000e+001
	0.000000000000000e+000
	6.478881434578828e-003
	2.111856542117171e-005
	-6.500000000000000e-003
	6.478881434578828e-003
	2.111856542117172e-005
	-6.500000000000000e-003
	1.300000000000000e-002
	6.478881472758819e-003
	6.478881472758819e-003
	-2.111852724118146e-005
	-2.111852724118149e-005
	0.000000000000000e+000
	-1.300000000000000e-002
	-1.295776286915766e-002
42		1.400000000000000e-002
	-3.489760278611434e-001
	0.000000000000000e+000
	-7.165797160820439e-001
	-3.489760278611434e-001
	0.000000000000000e+000
	-1.500000000000000e+001
	1.500000000000000e+001
	0.000000000000000e+000
	6.976807252298507e-003
	2.319274770149285e-005
	-7.000000000000000e-003
	6.976807252298507e-003
	2.319274770149285e-005
	-7.000000000000000e-003
	1.400000000000000e-002
	6.976807285391429e-003
	6.976807285391429e-003
	-2.319271460857119e-005
	-2.319271460857118e-005
	0.000000000000000e+000
	-1.400000000000000e-002
	-1.395361450459702e-002
43		1.500000000000000e-002
	-6.314744121550976e-001
	0.000000000000000e+000
	-7.198490008930818e-001
	-6.314744121550976e-001
	0.000000000000000e+000
	-1.500000000000000e+001
	1.500000000000000e+001
	0.000000000000000e+000
	7.105193928511192e-003
	3.948060714888087e-004
	-7.500000000000000e-003
	7.105193928511192e-003
	3.948060714888087e-004
	-7.500000000000000e-003
	1.500000000000000e-002
	7.105215641888681e-003
	7.105215641888681e-003
	-3.947843581113193e-004
	-3.947843581113193e-004
	0.000000000000000e+000
	-1.500000000000000e-002
	-1.421038785702238e-002
