Title: * E:\Eigene Dateien\Visual Studio Projects\git\ltspice2matlab\testdata\XVII\text\tran\tran.asc
Date: Thu Feb 21 17:03:32 2019
Plotname: Transient Analysis
Flags: real forward
No. Variables: 23
No. Points:         1042
Offset:   0.0000000000000000e+000
Command: Linear Technology Corporation LTspice XVII -- Alternate Solver
Variables:
	0	time	time
	1	V(uc1)	voltage
	2	V(ue1)	voltage
	3	V(ue12)	voltage
	4	V(uc2)	voltage
	5	V(ue2)	voltage
	6	V(vee)	voltage
	7	V(vcc)	voltage
	8	V(ued)	voltage
	9	Ic(Q2)	device_current
	10	Ib(Q2)	device_current
	11	Ie(Q2)	device_current
	12	Ic(Q1)	device_current
	13	Ib(Q1)	device_current
	14	Ie(Q1)	device_current
	15	I(I1)	device_current
	16	I(R2)	device_current
	17	I(R1)	device_current
	18	I(E2)	device_current
	19	I(E1)	device_current
	20	I(V1)	device_current
	21	I(Ve)	device_current
	22	I(Vc)	device_current
Values:
0		0.000000000000000e+000
	7.521988206167837e+000
	0.000000000000000e+000
	-7.040969836371462e-001
	7.521988206167837e+000
	0.000000000000000e+000
	-1.500000000000000e+001
	1.500000000000000e+001
	0.000000000000000e+000
	4.985341195888109e-003
	1.465885159483894e-005
	-5.000015425759304e-003
	4.985341195888109e-003
	1.465885159483894e-005
	-5.000015425759304e-003
	1.000000000000000e-002
	4.985341195888109e-003
	4.985341195888109e-003
	-1.465880411189173e-005
	-1.465880411189175e-005
	0.000000000000000e+000
	-1.000000000000000e-002
	-9.970682391776217e-003
1		1.953124988129940e-011
	7.521988078776067e+000
	6.135923114251654e-010
	-7.040969811521127e-001
	7.521988079476417e+000
	-6.135923114251654e-010
	-1.500000000000000e+001
	1.500000000000000e+001
	1.227184622850331e-009
	4.985341280349055e-003
	1.465496122971660e-005
	-4.999996241578771e-003
	4.985341280815954e-003
	1.466247760527502e-005
	-5.000003758421229e-003
	1.000000000000000e-002
	4.985341280349056e-003
	4.985341280815956e-003
	-1.465496122951136e-005
	-1.466247760547853e-005
	0.000000000000000e+000
	-1.000000000000000e-002
	-9.970682561165008e-003
2		3.906249976259879e-011
	7.521987954994935e+000
	1.227184622850322e-009
	-7.040969787421200e-001
	7.521987958310276e+000
	-1.227184622850322e-009
	-1.500000000000000e+001
	1.500000000000000e+001
	2.454369245700643e-009
	4.985341361126483e-003
	1.465476894159330e-005
	-4.999996130068076e-003
	4.985341363336709e-003
	1.466250659521665e-005
	-5.000003869931925e-003
	1.000000000000000e-002
	4.985341361126483e-003
	4.985341363336710e-003
	-1.465476894159455e-005
	-1.466250659521318e-005
	0.000000000000000e+000
	-1.000000000000000e-002
	-9.970682724463191e-003
3		7.812499952519758e-011
	7.521987714380932e+000
	2.454369245700569e-009
	-7.040969740676694e-001
	7.521987726731479e+000
	-2.454369245700569e-009
	-1.500000000000000e+001
	1.500000000000000e+001
	4.908738491401139e-009
	4.985341515512348e-003
	1.465439165178746e-005
	-4.999995907164136e-003
	4.985341523746046e-003
	1.466256908982022e-005
	-5.000004092835866e-003
	1.000000000000000e-002
	4.985341515512347e-003
	4.985341523746046e-003
	-1.465439165178643e-005
	-1.466256908981990e-005
	0.000000000000000e+000
	-1.000000000000000e-002
	-9.970683039258394e-003
4		1.562499990503952e-010
	7.521987271766768e+000
	4.908738491400547e-009
	-7.040969655406300e-001
	7.521987324734103e+000
	-4.908738491400547e-009
	-1.500000000000000e+001
	1.500000000000000e+001
	9.817476982801095e-009
	4.985341783510599e-003
	1.465367853835370e-005
	-4.999995462048952e-003
	4.985341818822155e-003
	1.466271912889218e-005
	-5.000004537951047e-003
	1.000000000000000e-002
	4.985341783510598e-003
	4.985341818822155e-003
	-1.465367853825970e-005
	-1.466271912898870e-005
	0.000000000000000e+000
	-1.000000000000000e-002
	-9.970683602332754e-003
5		3.124999981007903e-010
	7.521986513798273e+000
	9.817476982796363e-009
	-7.040969513175739e-001
	7.521986735405176e+000
	-9.817476982796363e-009
	-1.500000000000000e+001
	1.500000000000000e+001
	1.963495396559273e-008
	4.985342176396550e-003
	1.465239811257522e-005
	-4.999994574509126e-003
	4.985342324134484e-003
	1.466310135639000e-005
	-5.000005425490874e-003
	1.000000000000000e-002
	4.985342176396550e-003
	4.985342324134484e-003
	-1.465239811257182e-005
	-1.466310135639489e-005
	0.000000000000000e+000
	-1.000000000000000e-002
	-9.970684500531034e-003
6		6.249999962015806e-010
	7.521985340509093e+000
	1.963495396555488e-008
	-7.040969313659083e-001
	7.521986227986837e+000
	-1.963495396555488e-008
	-1.500000000000000e+001
	1.500000000000000e+001
	3.926990793110976e-008
	4.985342514675441e-003
	1.465029486474591e-005
	-4.999992809540187e-003
	4.985343106327272e-003
	1.466408413254102e-005
	-5.000007190459814e-003
	1.000000000000000e-002
	4.985342514675442e-003
	4.985343106327271e-003
	-1.465029486472911e-005
	-1.466408413255721e-005
	0.000000000000000e+000
	-1.000000000000000e-002
	-9.970685621002713e-003
7		1.249999992403161e-009
	7.521983559253552e+000
	3.926990793080696e-008
	-7.040969112932729e-001
	7.521986941965806e+000
	-3.926990793080696e-008
	-1.500000000000000e+001
	1.500000000000000e+001
	7.853981586161391e-008
	4.985342038689454e-003
	1.464727671597489e-005
	-4.999989315405429e-003
	4.985344293830985e-003
	1.466639076358602e-005
	-5.000010684594571e-003
	1.000000000000000e-002
	4.985342038689463e-003
	4.985344293830965e-003
	-1.464727671591236e-005
	-1.466639076366046e-005
	0.000000000000000e+000
	-1.000000000000000e-002
	-9.970686332520439e-003
8		2.499999984806323e-009
	7.521979702598366e+000
	7.853981585919155e-008
	-7.040969009555903e-001
	7.521991751176676e+000
	-7.853981585919155e-008
	-1.500000000000000e+001
	1.500000000000000e+001
	1.570796317183831e-007
	4.985338832548859e-003
	1.464360768439887e-005
	-4.999982440233257e-003
	4.985346864934476e-003
	1.467069483226660e-005
	-5.000017559766742e-003
	1.000000000000000e-002
	4.985338832548882e-003
	4.985346864934423e-003
	-1.464360768411975e-005
	-1.467069483257636e-005
	0.000000000000000e+000
	-1.000000000000000e-002
	-9.970685697483335e-003
9		4.999999969612645e-009
	7.521967653876221e+000
	1.570796316990042e-007
	-7.040969004097847e-001
	7.522006443510739e+000
	-1.570796316990042e-007
	-1.500000000000000e+001
	1.500000000000000e+001
	3.141592633980084e-007
	4.985329037659370e-003
	1.463994177521965e-005
	-4.999968979434589e-003
	4.985354897415650e-003
	1.467612314976063e-005
	-5.000031020565411e-003
	1.000000000000000e-002
	4.985329037659508e-003
	4.985354897415853e-003
	-1.463994177476171e-005
	-1.467612314987797e-005
	0.000000000000000e+000
	-1.000000000000000e-002
	-9.970683935075020e-003
10		9.999999939225290e-009
	7.521933589858720e+000
	3.141592632429770e-007
	-7.040969000020906e-001
	7.522042460356833e+000
	-3.141592632429770e-007
	-1.500000000000000e+001
	1.500000000000000e+001
	6.283185264859540e-007
	4.985305026428447e-003
	1.463754219534620e-005
	-4.999942568623792e-003
	4.985377606760113e-003
	1.467982461609457e-005
	-5.000057431376207e-003
	1.000000000000000e-002
	4.985305026428778e-003
	4.985377606760853e-003
	-1.463754219502220e-005
	-1.467982461534677e-005
	0.000000000000000e+000
	-1.000000000000000e-002
	-9.970682633188559e-003
11		1.999999987845058e-008
	7.521856175908134e+000
	6.283185252457029e-007
	-7.040968999077905e-001
	7.522120312423369e+000
	-6.283185252457029e-007
	-1.500000000000000e+001
	1.500000000000000e+001
	1.256637050491406e-006
	4.985253125050906e-003
	1.463708674721934e-005
	-4.999890211798125e-003
	4.985429216060795e-003
	1.468057214108087e-005
	-5.000109788201874e-003
	1.000000000000000e-002
	4.985253125051087e-003
	4.985429216061244e-003
	-1.463708674704399e-005
	-1.468057214062487e-005
	0.000000000000000e+000
	-1.000000000000000e-002
	-9.970682341111700e-003
12		3.999999975690116e-008
	7.521699496680648e+000
	1.256637040569398e-006
	-7.040968999112810e-001
	7.522276890697252e+000
	-1.256637040569398e-006
	-1.500000000000000e+001
	1.500000000000000e+001
	2.513274081138795e-006
	4.985148739535163e-003
	1.463684248410263e-005
	-4.999785582019266e-003
	4.985533668879557e-003
	1.468074910117779e-005
	-5.000214417980734e-003
	1.000000000000000e-002
	4.985148739535166e-003
	4.985533668879568e-003
	-1.463684248409963e-005
	-1.468074910116658e-005
	0.000000000000000e+000
	-1.000000000000000e-002
	-9.970682408414720e-003
13		7.999999951380232e-008
	7.521386718546916e+000
	2.513274001762730e-006
	-7.040968998331894e-001
	7.522589726002898e+000
	-2.513274001762730e-006
	-1.500000000000000e+001
	1.500000000000000e+001
	5.026548003525459e-006
	4.984940182664729e-003
	1.463611206552803e-005
	-4.999576294730258e-003
	4.985742187635392e-003
	1.468151763434912e-005
	-5.000423705269742e-003
	1.000000000000000e-002
	4.984940182664735e-003
	4.985742187635390e-003
	-1.463611206552883e-005
	-1.468151763434756e-005
	0.000000000000000e+000
	-1.000000000000000e-002
	-9.970682370300122e-003
14		1.599999990276046e-007
	7.520760795150515e+000
	5.026547368516965e-006
	-7.040968995742325e-001
	7.523215607437675e+000
	-5.026547368516965e-006
	-1.500000000000000e+001
	1.500000000000000e+001
	1.005309473703393e-005
	4.984522928374873e-003
	1.463480967029915e-005
	-4.999157738045173e-003
	4.986159469899666e-003
	1.468279205516205e-005
	-5.000842261954828e-003
	1.000000000000000e-002
	4.984522928374884e-003
	4.986159469899656e-003
	-1.463480967030006e-005
	-1.468279205516103e-005
	0.000000000000000e+000
	-1.000000000000000e-002
	-9.970682398274538e-003
15		3.199999980552093e-007
	7.519509247043926e+000
	1.005308965696693e-005
	-7.040968984989411e-001
	7.524467196012677e+000
	-1.005308965696693e-005
	-1.500000000000000e+001
	1.500000000000000e+001
	2.010617931393387e-005
	4.983688535991552e-003
	1.463207497711802e-005
	-4.998320610968670e-003
	4.986993835304045e-003
	1.468555372728417e-005
	-5.001679389031330e-003
	1.000000000000000e-002
	4.983688535991549e-003
	4.986993835304049e-003
	-1.463207497711785e-005
	-1.468555372728426e-005
	0.000000000000000e+000
	-1.000000000000000e-002
	-9.970682371295598e-003
16		6.399999961104186e-007
	7.517005892024447e+000
	2.010613867342871e-005
	-7.040968942360195e-001
	7.526970522037995e+000
	-2.010613867342871e-005
	-1.500000000000000e+001
	1.500000000000000e+001
	4.021227734685742e-005
	4.982019651974669e-003
	1.462672417569280e-005
	-4.996646376150361e-003
	4.988662738650369e-003
	1.469088519926933e-005
	-5.003353623849638e-003
	1.000000000000000e-002
	4.982019651974669e-003
	4.988662738650369e-003
	-1.462672417569280e-005
	-1.469088519926932e-005
	0.000000000000000e+000
	-1.000000000000000e-002
	-9.970682390625037e-003
17		1.279999992220837e-006
	7.511999513582695e+000
	4.021195222380193e-005
	-7.040968771558117e-001
	7.531976952071219e+000
	-4.021195222380193e-005
	-1.500000000000000e+001
	1.500000000000000e+001
	8.042390444760386e-005
	4.978682031952508e-003
	1.461591178312788e-005
	-4.993297943735636e-003
	4.992000324278215e-003
	1.470173198614879e-005
	-5.006702056264364e-003
	1.000000000000000e-002
	4.978682031952520e-003
	4.992000324278203e-003
	-1.461591178312819e-005
	-1.470173198614870e-005
	0.000000000000000e+000
	-1.000000000000000e-002
	-9.970682356230724e-003
18		2.559999984441674e-006
	7.501987109164951e+000
	8.042130349470393e-005
	-7.040968088828746e-001
	7.541989375136700e+000
	-8.042130349470393e-005
	-1.500000000000000e+001
	1.500000000000000e+001
	1.608426069894079e-004
	4.972007083241782e-003
	1.459440526988852e-005
	-4.986601488511671e-003
	4.998675260557119e-003
	1.472325093121040e-005
	-5.013398511488329e-003
	1.000000000000000e-002
	4.972007083242200e-003
	4.998675260556700e-003
	-1.459440526989317e-005
	-1.472325093120694e-005
	0.000000000000000e+000
	-1.000000000000000e-002
	-9.970682343798901e-003
19		4.513124984441674e-006
	7.486712463943987e+000
	1.417650021106860e-004
	-7.040966170297603e-001
	7.557264179395701e+000
	-1.417650021106860e-004
	-1.500000000000000e+001
	1.500000000000000e+001
	2.835300042213721e-004
	4.961823880397923e-003
	1.456152152421563e-005
	-4.976385401922138e-003
	5.008858357375620e-003
	1.475624070224227e-005
	-5.023614598077862e-003
	1.000000000000000e-002
	4.961823880402866e-003
	5.008858357370675e-003
	-1.456152152425469e-005
	-1.475624070220412e-005
	0.000000000000000e+000
	-1.000000000000000e-002
	-9.970682237773542e-003
20		6.466249984441674e-006
	7.471443250091221e+000
	2.030873514388029e-004
	-7.040963193860129e-001
	7.572533540738242e+000
	-2.030873514388029e-004
	-1.500000000000000e+001
	1.500000000000000e+001
	4.061747028776058e-004
	4.951644306162720e-003
	1.452874368166410e-005
	-4.966173049844384e-003
	5.019037833284303e-003
	1.478911687131252e-005
	-5.033826950155616e-003
	1.000000000000000e-002
	4.951644306174506e-003
	5.019037833272520e-003
	-1.452874368175499e-005
	-1.478911687122032e-005
	0.000000000000000e+000
	-1.000000000000000e-002
	-9.970682139447023e-003
21		8.419374984441674e-006
	7.456182201606937e+000
	2.643791165588071e-004
	-7.040959161060298e-001
	7.587794857867550e+000
	-2.643791165588071e-004
	-1.500000000000000e+001
	1.500000000000000e+001
	5.287582331176141e-004
	4.941470094738180e-003
	1.449593277948752e-005
	-4.955966027517668e-003
	5.029211865612154e-003
	1.482210687017775e-005
	-5.044033972482332e-003
	1.000000000000000e-002
	4.941470094754967e-003
	5.029211865595375e-003
	-1.449593277961472e-005
	-1.482210687004342e-005
	0.000000000000000e+000
	-1.000000000000000e-002
	-9.970681960350334e-003
22		1.037249998444167e-005
	7.440931403078851e+000
	3.256310671563204e-004
	-7.040954074600215e-001
	7.603045914170221e+000
	-3.256310671563204e-004
	-1.500000000000000e+001
	1.500000000000000e+001
	6.512621343126409e-004
	4.931302723864643e-003
	1.446323714321568e-005
	-4.945765961007858e-003
	5.039379064635963e-003
	1.485497435617995e-005
	-5.054234038992142e-003
	1.000000000000000e-002
	4.931302723886520e-003
	5.039379064614099e-003
	-1.446323714337897e-005
	-1.485497435600311e-005
	0.000000000000000e+000
	-1.000000000000000e-002
	-9.970681788500605e-003
23		1.232562498444168e-005
	7.425693580366054e+000
	3.868339789128851e-004
	-7.040947937301345e-001
	7.618284114545196e+000
	-3.868339789128851e-004
	-1.500000000000000e+001
	1.500000000000000e+001
	7.736679578257702e-004
	4.921143923609731e-003
	1.443051952138220e-005
	-4.935574443131114e-003
	5.049537613116079e-003
	1.488794375280750e-005
	-5.064425556868886e-003
	1.000000000000000e-002
	4.921143923636536e-003
	5.049537613089297e-003
	-1.443051952157930e-005
	-1.488794375258704e-005
	0.000000000000000e+000
	-1.000000000000000e-002
	-9.970681536725810e-003
24		1.427874998444168e-005
	7.410470817246257e+000
	4.479786348951128e-004
	-7.040940753140157e-001
	7.633507244987240e+000
	-4.479786348951128e-004
	-1.500000000000000e+001
	1.500000000000000e+001
	8.959572697902255e-004
	4.910995169976716e-003
	1.439792647255833e-005
	-4.925393096449276e-003
	5.059686121867585e-003
	1.492078168313982e-005
	-5.074606903550724e-003
	1.000000000000000e-002
	4.910995170008506e-003
	5.059686121835829e-003
	-1.439792647278904e-005
	-1.492078168287593e-005
	0.000000000000000e+000
	-1.000000000000000e-002
	-9.970681291844301e-003
25		1.623187498444167e-005
	7.395265829435206e+000
	5.090558269427200e-004
	-7.040932526207995e-001
	7.648712718611603e+000
	-5.090558269427200e-004
	-1.500000000000000e+001
	1.500000000000000e+001
	1.018111653885440e-003
	4.900858187555668e-003
	1.436532242938571e-005
	-4.915223509985053e-003
	5.069822780413080e-003
	1.495370960186694e-005
	-5.084776490014946e-003
	1.000000000000000e-002
	4.900858187592265e-003
	5.069822780376529e-003
	-1.436532242964748e-005
	-1.495370960155827e-005
	0.000000000000000e+000
	-1.000000000000000e-002
	-9.970680967968748e-003
26		1.818499998444168e-005
	7.380080697814072e+000
	5.700563570552444e-004
	-7.040923261747093e-001
	7.663898326090483e+000
	-5.700563570552444e-004
	-1.500000000000000e+001
	1.500000000000000e+001
	1.140112714110489e-003
	4.890734449231551e-003
	1.433285220236586e-005
	-4.905067301433917e-003
	5.079946201498685e-003
	1.498649706739859e-005
	-5.094932698566083e-003
	1.000000000000000e-002
	4.890734449273011e-003
	5.079946201457285e-003
	-1.433285220265867e-005
	-1.498649706704572e-005
	0.000000000000000e+000
	-1.000000000000000e-002
	-9.970680650730236e-003
27		2.013812498444167e-005
	7.364918125971983e+000
	6.309710387772281e-004
	-7.040912965108052e-001
	7.679061490757269e+000
	-6.309710387772281e-004
	-1.500000000000000e+001
	1.500000000000000e+001
	1.261942077554456e-003
	4.880625672782400e-003
	1.430038188146779e-005
	-4.894926054663867e-003
	5.090054582731356e-003
	1.501936260477741e-005
	-5.105073945336132e-003
	1.000000000000000e-002
	4.880625672828488e-003
	5.090054582685345e-003
	-1.430038188178850e-005
	-1.501936260437902e-005
	0.000000000000000e+000
	-1.000000000000000e-002
	-9.970680255513755e-003
28		2.209124998444168e-005
	7.349780189820848e+000
	6.917906985816660e-004
	-7.040901642786527e-001
	7.694200010017301e+000
	-6.917906985816660e-004
	-1.500000000000000e+001
	1.500000000000000e+001
	1.383581397163332e-003
	4.870533326604369e-003
	1.426805454778469e-005
	-4.884801381152155e-003
	5.100146540170102e-003
	1.505207867774295e-005
	-5.115198618847845e-003
	1.000000000000000e-002
	4.870533326655132e-003
	5.100146540119434e-003
	-1.426805454813343e-005
	-1.505207867730003e-005
	0.000000000000000e+000
	-1.000000000000000e-002
	-9.970679866774473e-003
29		2.404437498444167e-005
	7.334669578857651e+000
	7.525061772515036e-004
	-7.040889301378657e-001
	7.709311319406350e+000
	-7.525061772515036e-004
	-1.500000000000000e+001
	1.500000000000000e+001
	1.505012354503007e-003
	4.860459120340552e-003
	1.423573792228439e-005
	-4.874694858262836e-003
	5.110220280816665e-003
	1.508486092049860e-005
	-5.125305141737164e-003
	1.000000000000000e-002
	4.860459120395766e-003
	5.110220280761566e-003
	-1.423573792265789e-005
	-1.508486092000950e-005
	0.000000000000000e+000
	-1.000000000000000e-002
	-9.970679401157217e-003
30		2.599749998444168e-005
	7.319588361973185e+000
	8.131083312589824e-004
	-7.040875948618098e-001
	7.724393225097971e+000
	-8.131083312589824e-004
	-1.500000000000000e+001
	1.500000000000000e+001
	1.626216662517965e-003
	4.850404516541697e-003
	1.420357337507231e-005
	-4.864608089916769e-003
	5.120274425410730e-003
	1.511748467250080e-005
	-5.135391910083231e-003
	1.000000000000000e-002
	4.850404516601353e-003
	5.120274425351210e-003
	-1.420357337547060e-005
	-1.511748467196723e-005
	0.000000000000000e+000
	-1.000000000000000e-002
	-9.970678941952428e-003
31		2.795062498444167e-005
	7.304539212628722e+000
	8.735880341426213e-004
	-7.040861592329741e-001
	7.739443176792761e+000
	-8.735880341426213e-004
	-1.500000000000000e+001
	1.500000000000000e+001
	1.747176068285243e-003
	4.840371215407622e-003
	1.417143023224186e-005
	-4.854542645639863e-003
	5.130307191644564e-003
	1.515016271557395e-005
	-5.145457354360137e-003
	1.000000000000000e-002
	4.840371215471493e-003
	5.130307191580852e-003
	-1.417143023266146e-005
	-1.515016271499392e-005
	0.000000000000000e+000
	-1.000000000000000e-002
	-9.970678407052186e-003
32		2.990374998444168e-005
	7.289524190667484e+000
	9.339361778816273e-004
	-7.040846241466784e-001
	7.754458991442371e+000
	-9.339361778816273e-004
	-1.500000000000000e+001
	1.500000000000000e+001
	1.867872355763255e-003
	4.830360672303682e-003
	1.413944817110191e-005
	-4.844500120474785e-003
	5.140317206289565e-003
	1.518267323565118e-005
	-5.155499879525216e-003
	1.000000000000000e-002
	4.830360672371753e-003
	5.140317206221677e-003
	-1.413944817154295e-005
	-1.518267323502687e-005
	0.000000000000000e+000
	-1.000000000000000e-002
	-9.970677878593248e-003
33		3.185687498444167e-005
	7.274545951597839e+000
	9.941436742675319e-004
	-7.040829905063074e-001
	7.769438134848454e+000
	-9.941436742675319e-004
	-1.500000000000000e+001
	1.500000000000000e+001
	1.988287348535064e-003
	4.820374576695687e-003
	1.410749809745531e-005
	-4.834482074793142e-003
	5.150302699006571e-003
	1.521522620028623e-005
	-5.165517925206858e-003
	1.000000000000000e-002
	4.820374576767698e-003
	5.150302698934774e-003
	-1.410749809791394e-005
	-1.521522619961552e-005
	0.000000000000000e+000
	-1.000000000000000e-002
	-9.970677275702259e-003
34		3.380999998444168e-005
	7.259606544218497e+000
	1.054201456272839e-003
	-7.040812593269893e-001
	7.784378436721336e+000
	-1.054201456272839e-003
	-1.500000000000000e+001
	1.500000000000000e+001
	2.108402912545679e-003
	4.810414375443210e-003
	1.407571801378923e-005
	-4.824490093456999e-003
	5.160262303929996e-003
	1.524760261300459e-005
	-5.175509906543001e-003
	1.000000000000000e-002
	4.810414375519109e-003
	5.160262303854336e-003
	-1.407571801426553e-005
	-1.524760261229027e-005
	0.000000000000000e+000
	-1.000000000000000e-002
	-9.970676679373207e-003
35		3.576312498444168e-005
	7.244708604198437e+000
	1.114100479416490e-003
	-7.040794316307284e-001
	7.799277380869407e+000
	-1.114100479416490e-003
	-1.500000000000000e+001
	1.500000000000000e+001
	2.228200958832980e-003
	4.800481746007514e-003
	1.404398038065767e-005
	-4.814525726388171e-003
	5.170194263946987e-003
	1.528000966484240e-005
	-5.185474273611829e-003
	1.000000000000000e-002
	4.800481746087062e-003
	5.170194263867708e-003
	-1.404398038114782e-005
	-1.528000966408188e-005
	0.000000000000000e+000
	-1.000000000000000e-002
	-9.970676009954500e-003
36		3.771624998444167e-005
	7.229854167328561e+000
	1.173831723125924e-003
	-7.040775085500224e-001
	7.814132811708793e+000
	-1.173831723125924e-003
	-1.500000000000000e+001
	1.500000000000000e+001
	2.347663446251848e-003
	4.790578125444363e-003
	1.401242154349551e-005
	-4.804590546987859e-003
	5.180097221863767e-003
	1.531223114837420e-005
	-5.195409453012141e-003
	1.000000000000000e-002
	4.790578125527471e-003
	5.180097221780959e-003
	-1.401242154399955e-005
	-1.531223114757094e-005
	0.000000000000000e+000
	-1.000000000000000e-002
	-9.970675347308130e-003
37		3.966937498444167e-005
	7.215045847586556e+000
	1.233386192095548e-003
	-7.040754912229279e-001
	7.828942232925871e+000
	-1.233386192095548e-003
	-1.500000000000000e+001
	1.500000000000000e+001
	2.466772384191096e-003
	4.780705177963016e-003
	1.398091549310976e-005
	-4.794686093456126e-003
	5.189969435028364e-003
	1.534447151551031e-005
	-5.205313906543874e-003
	1.000000000000000e-002
	4.780705178049420e-003
	5.189969434942296e-003
	-1.398091549362348e-005
	-1.534447151466163e-005
	0.000000000000000e+000
	-1.000000000000000e-002
	-9.970674612991380e-003
38		4.162249998444168e-005
	7.200285665829980e+000
	1.292754917641393e-003
	-7.040733808965857e-001
	7.843703505552143e+000
	-1.292754917641393e-003
	-1.500000000000000e+001
	1.500000000000000e+001
	2.585509835282785e-003
	4.770864329542293e-003
	1.394959693545755e-005
	-4.784813926477751e-003
	5.199809556202592e-003
	1.537651731965733e-005
	-5.215186073522249e-003
	1.000000000000000e-002
	4.770864329631905e-003
	5.199809556113347e-003
	-1.394959693598123e-005
	-1.537651731876694e-005
	0.000000000000000e+000
	-1.000000000000000e-002
	-9.970673885744885e-003
39		4.357562498444168e-005
	7.185576212531831e+000
	1.351928959051768e-003
	-7.040711788222541e-001
	7.858414154984840e+000
	-1.351928959051768e-003
	-1.500000000000000e+001
	1.500000000000000e+001
	2.703857918103535e-003
	4.761057229917568e-003
	1.391834136755970e-005
	-4.774975571285128e-003
	5.209615858404244e-003
	1.540857031062744e-005
	-5.225024428714873e-003
	1.000000000000000e-002
	4.761057230010106e-003
	5.209615858312112e-003
	-1.391834136808887e-005
	-1.540857030969256e-005
	0.000000000000000e+000
	-1.000000000000000e-002
	-9.970673088321813e-003
40		4.552874998444167e-005
	7.170919491732096e+000
	1.410899404933695e-003
	-7.040688863587105e-001
	7.873072060739302e+000
	-1.410899404933695e-003
	-1.500000000000000e+001
	1.500000000000000e+001
	2.821798809867389e-003
	4.751285292745116e-003
	1.388728187328694e-005
	-4.765172574618403e-003
	5.219387005606846e-003
	1.544041977475194e-005
	-5.234827425381597e-003
	1.000000000000000e-002
	4.751285292840466e-003
	5.219387005511936e-003
	-1.388728187382189e-005
	-1.544041977377678e-005
	0.000000000000000e+000
	-1.000000000000000e-002
	-9.970672298351961e-003
41		4.748187498444167e-005
	7.156318068628019e+000
	1.469657374554934e-003
	-7.040665048672873e-001
	7.887674771714304e+000
	-1.469657374554934e-003
	-1.500000000000000e+001
	1.500000000000000e+001
	2.939314749109868e-003
	4.741550152092590e-003
	1.385629543229426e-005
	-4.755406447524885e-003
	5.229121287678712e-003
	1.547226479640391e-005
	-5.244593552475116e-003
	1.000000000000000e-002
	4.741550152190464e-003
	5.229121287581321e-003
	-1.385629543283040e-005
	-1.547226479538549e-005
	0.000000000000000e+000
	-1.000000000000000e-002
	-9.970671439771303e-003
42		4.943499998444168e-005
	7.141773928602817e+000
	1.528194019181391e-003
	-7.040640358151190e-001
	7.902220187732620e+000
	-1.528194019181391e-003
	-1.500000000000000e+001
	1.500000000000000e+001
	3.056388038362781e-003
	4.731853208077978e-003
	1.382551352358229e-005
	-4.745678721601560e-003
	5.238817381031211e-003
	1.550389736722860e-005
	-5.254321278398440e-003
	1.000000000000000e-002
	4.731853208178253e-003
	5.238817380931455e-003
	-1.382551352411999e-005
	-1.550389736617154e-005
	0.000000000000000e+000
	-1.000000000000000e-002
	-9.970670589109189e-003
43		5.138812498444168e-005
	7.127289609852472e+000
	1.586500523409698e-003
	-7.040614806702168e-001
	7.916705882939827e+000
	-1.586500523409698e-003
	-1.500000000000000e+001
	1.500000000000000e+001
	3.173001046819396e-003
	4.722196077937750e-003
	1.379481458631943e-005
	-4.735990892524069e-003
	5.248473593533485e-003
	1.553551394244572e-005
	-5.264009107475930e-003
	1.000000000000000e-002
	4.722196078040115e-003
	5.248473593431686e-003
	-1.379481458685382e-005
	-1.553551394134688e-005
	0.000000000000000e+000
	-1.000000000000000e-002
	-9.970669671471234e-003
44		5.334124998444167e-005
	7.112867077312599e+000
	1.644568106494787e-003
	-7.040588410045291e-001
	7.931129779241554e+000
	-1.644568106494787e-003
	-1.500000000000000e+001
	1.500000000000000e+001
	3.289136212989574e-003
	4.712580147067972e-003
	1.376432851168772e-005
	-4.726344475579659e-003
	5.258088615228656e-003
	1.556690919168501e-005
	-5.273655524420341e-003
	1.000000000000000e-002
	4.712580147172297e-003
	5.258088615124935e-003
	-1.376432851221932e-005
	-1.556690919054942e-005
	0.000000000000000e+000
	-1.000000000000000e-002
	-9.970668762296627e-003
45		5.529437498444167e-005
	7.098508840501474e+000
	1.702388023672235e-003
	-7.040561183890900e-001
	7.945489477726490e+000
	-1.702388023672235e-003
	-1.500000000000000e+001
	1.500000000000000e+001
	3.404776047344470e-003
	4.703007014743047e-003
	1.373393517570516e-005
	-4.716740949918754e-003
	5.267660773104325e-003
	1.559827697692182e-005
	-5.283259050081247e-003
	1.000000000000000e-002
	4.703007014849007e-003
	5.267660772999018e-003
	-1.373393517622887e-005
	-1.559827697574625e-005
	0.000000000000000e+000
	-1.000000000000000e-002
	-9.970667787847373e-003
46		5.724749998444168e-005
	7.084216842167590e+000
	1.759951567475193e-003
	-7.040533144968639e-001
	7.959782924107378e+000
	-1.759951567475193e-003
	-1.500000000000000e+001
	1.500000000000000e+001
	3.519903134950387e-003
	4.693478050487640e-003
	1.370376289862961e-005
	-4.707181813386269e-003
	5.277188771995021e-003
	1.562941461870910e-005
	-5.292818186613730e-003
	1.000000000000000e-002
	4.693478050595081e-003
	5.277188771888273e-003
	-1.370376289914602e-005
	-1.562941461749899e-005
	0.000000000000000e+000
	-1.000000000000000e-002
	-9.970666822482661e-003
47		5.920062498444168e-005
	7.069993561527094e+000
	1.817250069045700e-003
	-7.040504309980020e-001
	7.974007748060428e+000
	-1.817250069045700e-003
	-1.500000000000000e+001
	1.500000000000000e+001
	3.634500138091401e-003
	4.683994834517763e-003
	1.367369297112105e-005
	-4.697668527488885e-003
	5.286670959089810e-003
	1.566051342130542e-005
	-5.302331472511116e-003
	1.000000000000000e-002
	4.683994834626381e-003
	5.286670958981938e-003
	-1.367369297162506e-005
	-1.566051342005713e-005
	0.000000000000000e+000
	-1.000000000000000e-002
	-9.970665793607574e-003
48		6.115374998444167e-005
	7.055840917456186e+000
	1.874274899440180e-003
	-7.040474696624417e-001
	7.988161920775590e+000
	-1.874274899440180e-003
	-1.500000000000000e+001
	1.500000000000000e+001
	3.748549798880361e-003
	4.674558719373336e-003
	1.364385215925775e-005
	-4.688202571532594e-003
	5.296106055138025e-003
	1.569137332938077e-005
	-5.311797428467407e-003
	1.000000000000000e-002
	4.674558719482940e-003
	5.296106055029210e-003
	-1.364385215974986e-005
	-1.569137332810039e-005
	0.000000000000000e+000
	-1.000000000000000e-002
	-9.970664774511362e-003
49		6.310687498444167e-005
	7.041761357299048e+000
	1.931017470928929e-003
	-7.040444322553052e-001
	8.002243102106499e+000
	-1.931017470928929e-003
	-1.500000000000000e+001
	1.500000000000000e+001
	3.862034941857859e-003
	4.665171265152048e-003
	1.361412314658756e-005
	-4.678785388298635e-003
	5.305492428576746e-003