Title: * E:\Eigene Dateien\Visual Studio Projects\git\ltspice2matlab\testdata\XVII\text\tran\tran_stepped.asc
Date: Thu Feb 21 17:04:06 2019
Plotname: Transient Analysis
Flags: real forward stepped
No. Variables: 23
No. Points:         2084
Offset:   0.0000000000000000e+000
Command: Linear Technology Corporation LTspice XVII -- Alternate Solver
Variables:
	0	time	time
	1	V(uc1)	voltage
	2	V(ue1)	voltage
	3	V(ue12)	voltage
	4	V(uc2)	voltage
	5	V(ue2)	voltage
	6	V(vee)	voltage
	7	V(vcc)	voltage
	8	V(ued)	voltage
	9	Ic(Q2)	device_current
	10	Ib(Q2)	device_current
	11	Ie(Q2)	device_current
	12	Ic(Q1)	device_current
	13	Ib(Q1)	device_current
	14	Ie(Q1)	device_current
	15	I(I1)	device_current
	16	I(R2)	device_current
	17	I(R1)	device_current
	18	I(E2)	device_current
	19	I(E1)	device_current
	20	I(V1)	device_current
	21	I(Ve)	device_current
	22	I(Vc)	device_current
Values:
0		0.000000000000000e+000
	1.126065760855964e+001
	0.000000000000000e+000
	-6.841541034902617e-001
	1.126065760855964e+001
	0.000000000000000e+000
	-1.500000000000000e+001
	1.500000000000000e+001
	0.000000000000000e+000
	2.492894927626909e-003
	7.105075210843318e-006
	-2.500001046852202e-003
	2.492894927626909e-003
	7.105075210843314e-006
	-2.500001046852202e-003
	5.000000000000000e-003
	2.492894927626908e-003
	2.492894927626909e-003
	-7.105072373091578e-006
	-7.105072373091582e-006
	0.000000000000000e+000
	-5.000000000000000e-003
	-4.985789855253817e-003
1		1.953124988129940e-011
	1.126065759882965e+001
	6.135923114251654e-010
	-6.841541032368733e-001
	1.126065759871902e+001
	-6.135923114251654e-010
	-1.500000000000000e+001
	1.500000000000000e+001
	1.227184622850331e-009
	2.492894934187322e-003
	7.102548783783323e-006
	-2.499997482971105e-003
	2.492894934113568e-003
	7.107582915328215e-006
	-2.500002517028895e-003
	5.000000000000000e-003
	2.492894934187319e-003
	2.492894934113566e-003
	-7.102548783780287e-006
	-7.107582915334395e-006
	0.000000000000000e+000
	-5.000000000000000e-003
	-4.985789868300890e-003
2		3.906249976259879e-011
	1.126065758883474e+001
	1.227184622850322e-009
	-6.841541029893418e-001
	1.126065758972175e+001
	-1.227184622850322e-009
	-1.500000000000000e+001
	1.500000000000000e+001
	2.454369245700643e-009
	2.492894940185500e-003
	7.102485305203183e-006
	-2.499997425490703e-003
	2.492894940776839e-003
	7.107633732458341e-006
	-2.500002574509296e-003
	5.000000000000000e-003
	2.492894940185500e-003
	2.492894940776838e-003
	-7.102485305195811e-006
	-7.107633732465063e-006
	0.000000000000000e+000
	-5.000000000000000e-003
	-4.985789880962338e-003
3		7.812499952519758e-011
	1.126065756830831e+001
	2.454369245700569e-009
	-6.841541025057208e-001
	1.126065757339222e+001
	-2.454369245700569e-009
	-1.500000000000000e+001
	1.500000000000000e+001
	4.908738491401139e-009
	2.492894951071854e-003
	7.102359489871723e-006
	-2.499997310561725e-003
	2.492894954461125e-003
	7.107734977150116e-006
	-2.500002689438275e-003
	5.000000000000000e-003
	2.492894951071854e-003
	2.492894954461125e-003
	-7.102359489965181e-006
	-7.107734977056116e-006
	0.000000000000000e+000
	-5.000000000000000e-003
	-4.985789905532978e-003
4		1.562499990503952e-010
	1.126065752396117e+001
	4.908738491400547e-009
	-6.841541016040202e-001
	1.126065755047240e+001
	-4.908738491400547e-009
	-1.500000000000000e+001
	1.500000000000000e+001
	9.817476982801095e-009
	2.492894966351736e-003
	7.102114540384218e-006
	-2.499997080892120e-003
	2.492894984025889e-003
	7.107935081992372e-006
	-2.500002919107880e-003
	5.000000000000000e-003
	2.492894966351735e-003
	2.492894984025888e-003
	-7.102114540385573e-006
	-7.107935081992318e-006
	0.000000000000000e+000
	-5.000000000000000e-003
	-4.985789950377625e-003
5		3.124999981007903e-010
	1.126065742146418e+001
	9.817476982796363e-009
	-6.841541000343671e-001
	1.126065754124762e+001
	-9.817476982796363e-009
	-1.500000000000000e+001
	1.500000000000000e+001
	1.963495396559273e-008
	2.492894972501585e-003
	7.101649779809222e-006
	-2.499996622281393e-003
	2.492895052357216e-003
	7.108325361392207e-006
	-2.500003377718608e-003
	5.000000000000000e-003
	2.492894972501584e-003
	2.492895052357215e-003
	-7.101649779836001e-006
	-7.108325361364289e-006
	0.000000000000000e+000
	-5.000000000000000e-003
	-4.985790024858799e-003
6		6.249999962015806e-010
	1.126065715802600e+001
	1.963495396555488e-008
	-6.841540976435645e-001
	1.126065765308489e+001
	-1.963495396555488e-008
	-1.500000000000000e+001
	1.500000000000000e+001
	3.926990793110976e-008
	2.492894897943408e-003
	7.100809844366653e-006
	-2.499995707787773e-003
	2.492895227982669e-003
	7.109064229558984e-006
	-2.500004292212226e-003
	5.000000000000000e-003
	2.492894897943407e-003
	2.492895227982668e-003
	-7.100809844365284e-006
	-7.109064229560326e-006
	0.000000000000000e+000
	-5.000000000000000e-003
	-4.985790125926076e-003
7		1.249999992403161e-009
	1.126065639030615e+001
	3.926990793080696e-008
	-6.841540948263412e-001
	1.126065829869746e+001
	-3.926990793080696e-008
	-1.500000000000000e+001
	1.500000000000000e+001
	7.853981586161391e-008
	2.492894467535027e-003
	7.099420843419156e-006
	-2.499993888378446e-003
	2.492895739795898e-003
	7.110371825656431e-006
	-2.500006111621554e-003
	5.000000000000000e-003
	2.492894467535029e-003
	2.492895739795899e-003
	-7.099420843415422e-006
	-7.110371825657210e-006
	0.000000000000000e+000
	-5.000000000000000e-003
	-4.985790207330924e-003
8		2.499999984806323e-009
	1.126065397216613e+001
	7.853981585919155e-008
	-6.841540928139449e-001
	1.126066076875081e+001
	-7.853981585919155e-008
	-1.500000000000000e+001
	1.500000000000000e+001
	1.570796317183831e-007
	2.492892820832786e-003
	7.097458519932966e-006
	-2.499990279352719e-003
	2.492897351889239e-003
	7.112368758042449e-006
	-2.500009720647281e-003
	5.000000000000000e-003
	2.492892820832793e-003
	2.492897351889246e-003
	-7.097458519911540e-006
	-7.112368758050505e-006
	0.000000000000000e+000
	-5.000000000000000e-003
	-4.985790172722025e-003
9		4.999999969612645e-009
	1.126064664552416e+001
	1.570796316990042e-007
	-6.841540923795164e-001
	1.126066835081427e+001
	-1.570796316990042e-007
	-1.500000000000000e+001
	1.500000000000000e+001
	3.141592633980084e-007
	2.492887766123784e-003
	7.095369347459873e-006
	-2.499983135471244e-003
	2.492902236317183e-003
	7.114628211574135e-006
	-2.500016864528757e-003
	5.000000000000000e-003
	2.492887766123822e-003
	2.492902236317225e-003
	-7.095369347403064e-006
	-7.114628211550820e-006
	0.000000000000000e+000
	-5.000000000000000e-003
	-4.985790002440966e-003
10		9.999999939225290e-009
	1.126062752699670e+001
	3.141592632429770e-007
	-6.841540924333781e-001
	1.126068767190953e+001
	-3.141592632429770e-007
	-1.500000000000000e+001
	1.500000000000000e+001
	6.283185264859540e-007
	2.492874885393565e-003
	7.094086920818757e-006
	-2.499968972314384e-003
	2.492914982002101e-003
	7.116045683516101e-006
	-2.500031027685617e-003
	5.000000000000000e-003
	2.492874885393645e-003
	2.492914982002202e-003
	-7.094086920728399e-006
	-7.116045683425531e-006
	0.000000000000000e+000
	-5.000000000000000e-003
	-4.985789867395666e-003
11		1.999999987845058e-008
	1.126058551709020e+001
	6.283185252457029e-007
	-6.841540923675962e-001
	1.126072970273470e+001
	-6.283185252457029e-007
	-1.500000000000000e+001
	1.500000000000000e+001
	1.256637050491406e-006
	2.492846864843493e-003
	7.093884652702963e-006
	-2.499940749496195e-003
	2.492942988606486e-003
	7.116261897319172e-006
	-2.500059250503805e-003
	5.000000000000000e-003
	2.492846864843531e-003
	2.492942988606535e-003
	-7.093884652664407e-006
	-7.116261897271788e-006
	0.000000000000000e+000
	-5.000000000000000e-003
	-4.985789853449977e-003
12		3.999999975690116e-008
	1.126050104356721e+001
	1.256637040569398e-006
	-6.841540923924263e-001
	1.126081417284341e+001
	-1.256637040569398e-006
	-1.500000000000000e+001
	1.500000000000000e+001
	2.513274081138795e-006
	2.492790551437724e-003
	7.093764882984025e-006
	-2.499884316320707e-003
	2.492999304288525e-003
	7.116379390768656e-006
	-2.500115683679293e-003
	5.000000000000000e-003
	2.492790551437723e-003
	2.492999304288525e-003
	-7.093764882983966e-006
	-7.116379390768650e-006
	0.000000000000000e+000
	-5.000000000000000e-003
	-4.985789855726248e-003
13		7.999999951380232e-008
	1.126033225943871e+001
	2.513274001762730e-006
	-6.841540922753664e-001
	1.126098295771305e+001
	-2.513274001762730e-006
	-1.500000000000000e+001
	1.500000000000000e+001
	5.026548003525459e-006
	2.492678028191302e-003
	7.093417186006413e-006
	-2.499771445377308e-003
	2.493111827040859e-003
	7.116727581834230e-006
	-2.500228554622692e-003
	5.000000000000000e-003
	2.492678028191300e-003
	2.493111827040859e-003
	-7.093417186005987e-006
	-7.116727581834608e-006
	0.000000000000000e+000
	-5.000000000000000e-003
	-4.985789855232159e-003
14		1.599999990276046e-007
	1.125999458495196e+001
	5.026547368516965e-006
	-6.841540919971388e-001
	1.126132063216965e+001
	-5.026547368516965e-006
	-1.500000000000000e+001
	1.500000000000000e+001
	1.005309473703393e-005
	2.492452911886898e-003
	7.092794707298143e-006
	-2.499545706594196e-003
	2.493336943365364e-003
	7.117350040440958e-006
	-2.500454293405805e-003
	5.000000000000000e-003
	2.492452911886899e-003
	2.493336943365362e-003
	-7.092794707298163e-006
	-7.117350040440779e-006
	0.000000000000000e+000
	-5.000000000000000e-003
	-4.985789855252261e-003
15		3.199999980552093e-007
	1.125931932362573e+001
	1.005308965696693e-005
	-6.841540907033581e-001
	1.126199589315429e+001
	-1.005308965696693e-005
	-1.500000000000000e+001
	1.500000000000000e+001
	2.010617931393387e-005
	2.492002737897145e-003
	7.091489038088544e-006
	-2.499094226935233e-003
	2.493787117582848e-003
	7.118655481918922e-006
	-2.500905773064767e-003
	5.000000000000000e-003
	2.492002737897143e-003
	2.493787117582850e-003
	-7.091489038088439e-006
	-7.118655481919060e-006
	0.000000000000000e+000
	-5.000000000000000e-003
	-4.985789855479993e-003
16		6.399999961104186e-007
	1.125796872720107e+001
	2.010613867342871e-005
	-6.841540856999585e-001
	1.126334649017642e+001
	-2.010613867342871e-005
	-1.500000000000000e+001
	1.500000000000000e+001
	4.021227734685742e-005
	2.491102339882387e-003
	7.088933421762929e-006
	-2.498191273304150e-003
	2.494687515199284e-003
	7.121211496566279e-006
	-2.501808726695850e-003
	5.000000000000000e-003
	2.491102339882387e-003
	2.494687515199283e-003
	-7.088933421762927e-006
	-7.121211496566279e-006
	0.000000000000000e+000
	-5.000000000000000e-003
	-4.985789855081671e-003
17		1.279999992220837e-006
	1.125526765033179e+001
	4.021195222380193e-005
	-6.841540655096980e-001
	1.126604756768640e+001
	-4.021195222380193e-005
	-1.500000000000000e+001
	1.500000000000000e+001
	8.042390444760386e-005
	2.489301621542393e-003
	7.083769430649831e-006
	-2.496385390973042e-003
	2.496488233112150e-003
	7.126375914808477e-006
	-2.503614609026958e-003
	5.000000000000000e-003
	2.489301621542402e-003
	2.496488233112139e-003
	-7.083769430650190e-006
	-7.126375914808556e-006
	0.000000000000000e+000
	-5.000000000000000e-003
	-4.985789854654542e-003
18		2.559999984441674e-006
	1.124986574836523e+001
	8.042130349470393e-005
	-6.841539849153192e-001
	1.127144947585973e+001
	-8.042130349470393e-005
	-1.500000000000000e+001
	1.500000000000000e+001
	1.608426069894079e-004
	2.485700349426560e-003
	7.073495826316402e-006
	-2.492773845252876e-003
	2.500089501090142e-003
	7.136653656982468e-006
	-2.507226154747124e-003
	5.000000000000000e-003
	2.485700349426849e-003
	2.500089501089848e-003
	-7.073495826320627e-006
	-7.136653656981809e-006
	0.000000000000000e+000
	-5.000000000000000e-003
	-4.985789850516701e-003
19		4.513124984441674e-006
	1.124162471638847e+001
	1.417650021106860e-004
	-6.841537583096530e-001
	1.127969052459561e+001
	-1.417650021106860e-004
	-1.500000000000000e+001
	1.500000000000000e+001
	2.835300042213721e-004
	2.480206316932753e-003
	7.057783473776536e-006
	-2.487264100406529e-003
	2.505583522411213e-003
	7.152377182258270e-006
	-2.512735899593471e-003
	5.000000000000000e-003
	2.480206316936263e-003
	2.505583522407687e-003
	-7.057783473807380e-006
	-7.152377182242821e-006
	0.000000000000000e+000
	-5.000000000000000e-003
	-4.985789839343965e-003
20		6.466249984441674e-006
	1.123338667960586e+001
	2.030873514388029e-004
	-6.841534067998792e-001
	1.128792858971452e+001
	-2.030873514388029e-004
	-1.500000000000000e+001
	1.500000000000000e+001
	4.061747028776058e-004
	2.474714273515341e-003
	7.042116415663918e-006
	-2.481756389931005e-003
	2.511075546937758e-003
	7.168063131236942e-006
	-2.518243610068995e-003
	5.000000000000000e-003
	2.474714273523652e-003
	2.511075546929426e-003
	-7.042116415729639e-006
	-7.168063131193356e-006
	0.000000000000000e+000
	-5.000000000000000e-003
	-4.985789820453100e-003
21		8.419374984441674e-006
	1.122515304881684e+001
	2.643791165588071e-004
	-6.841529304644973e-001
	1.129616225813049e+001
	-2.643791165588071e-004
	-1.500000000000000e+001
	1.500000000000000e+001
	5.287582331176141e-004
	2.469225161234448e-003
	7.026428759034288e-006
	-2.476251589993481e-003
	2.516564634134020e-003
	7.183775872499450e-006
	-2.523748410006519e-003
	5.000000000000000e-003
	2.469225161246339e-003
	2.516564634122105e-003
	-7.026428759123309e-006
	-7.183775872431993e-006
	0.000000000000000e+000
	-5.000000000000000e-003
	-4.985789795368467e-003
22		1.037249998444167e-005
	1.121692504220761e+001
	3.256310671563204e-004
	-6.841523297292544e-001
	1.130439031395272e+001
	-3.256310671563204e-004
	-1.500000000000000e+001
	1.500000000000000e+001
	6.512621343126409e-004
	2.463739790682744e-003
	7.010790994661585e-006
	-2.470750581677405e-003
	2.522049971877060e-003
	7.199446445535948e-006
	-2.529249418322595e-003
	5.000000000000000e-003
	2.463739790698188e-003
	2.522049971861593e-003
	-7.010790994773588e-006
	-7.199446445444838e-006
	0.000000000000000e+000
	-5.000000000000000e-003
	-4.985789762559802e-003
23		1.232562498444168e-005
	1.120870406716432e+001
	3.868339789128851e-004
	-6.841516048248005e-001
	1.131261134739170e+001
	-3.868339789128851e-004
	-1.500000000000000e+001
	1.500000000000000e+001
	7.736679578257702e-004
	2.458259101719896e-003
	6.995137981457694e-006
	-2.465254239701353e-003
	2.527530621909450e-003
	7.215138389197638e-006
	-2.534745760298647e-003
	5.000000000000000e-003
	2.458259101738869e-003
	2.527530621890456e-003
	-6.995137981592454e-006
	-7.215138389082812e-006
	0.000000000000000e+000
	-5.000000000000000e-003
	-4.985789723629345e-003
24		1.427874998444168e-005
	1.120049134008264e+001
	4.479786348951128e-004
	-6.841507563278682e-001
	1.132082414443684e+001
	-4.479786348951128e-004
	-1.500000000000000e+001
	1.500000000000000e+001
	8.959572697902255e-004
	2.452783903686321e-003
	6.979539442369134e-006
	-2.459763443128689e-003
	2.533005773300714e-003
	7.230783570597652e-006
	-2.540236556871312e-003
	5.000000000000000e-003
	2.452783903708772e-003
	2.533005773278243e-003
	-6.979539442526196e-006
	-7.230783570459498e-006
	0.000000000000000e+000
	-5.000000000000000e-003
	-4.985789676987033e-003
25		1.623187498444167e-005
	1.119228826374664e+001
	5.090558269427200e-004
	-6.841497846203235e-001
	1.132902729978470e+001
	-5.090558269427200e-004
	-1.500000000000000e+001
	1.500000000000000e+001
	1.018111653885440e-003
	2.447315133450963e-003
	6.963930977585787e-006
	-2.454279064428549e-003
	2.538474490861494e-003
	7.246444709958272e-006
	-2.545720935571452e-003
	5.000000000000000e-003
	2.447315133476867e-003
	2.538474490835572e-003
	-6.963930977764942e-006
	-7.246444709796691e-006
	0.000000000000000e+000
	-5.000000000000000e-003
	-4.985789624312455e-003
26		1.818499998444168e-005
	1.118409605155815e+001
	5.700563570552444e-004
	-6.841486904288622e-001
	1.133721960250768e+001
	-5.700563570552444e-004
	-1.500000000000000e+001
	1.500000000000000e+001
	1.140112714110489e-003
	2.441853598298936e-003
	6.948381548378397e-006
	-2.448801979847314e-003
	2.543935965657199e-003
	7.262054495487299e-006
	-2.551198020152686e-003
	5.000000000000000e-003
	2.441853598328216e-003
	2.543935965627902e-003
	-6.948381548579057e-006
	-7.262054495302891e-006
	0.000000000000000e+000
	-5.000000000000000e-003
	-4.985789563956134e-003
27		2.013812498444167e-005
	1.117591610052340e+001
	6.309710387772281e-004
	-6.841474742852677e-001
	1.134539965296490e+001
	-6.309710387772281e-004
	-1.500000000000000e+001
	1.500000000000000e+001
	1.261942077554456e-003
	2.436400231324107e-003
	6.932827485728686e-006
	-2.443333058809835e-003
	2.549389266350377e-003
	7.277674839788640e-006
	-2.556666941190165e-003
	5.000000000000000e-003
	2.436400231356732e-003
	2.549389266317737e-003
	-6.932827485950524e-006
	-7.277674839581291e-006
	0.000000000000000e+000
	-5.000000000000000e-003
	-4.985789497674482e-003
28		2.209124998444168e-005
	1.116774961985590e+001
	6.917906985816660e-004
	-6.841461370647073e-001
	1.135356624450572e+001
	-6.917906985816660e-004
	-1.500000000000000e+001
	1.500000000000000e+001
	1.383581397163332e-003
	2.430955836960324e-003
	6.917336995336440e-006
	-2.437873173955660e-003
	2.554833586798613e-003
	7.293239245727546e-006
	-2.562126826044340e-003
	5.000000000000000e-003
	2.430955836996187e-003
	2.554833586762736e-003
	-6.917336995578753e-006
	-7.293239245498102e-006
	0.000000000000000e+000
	-5.000000000000000e-003
	-4.985789423758936e-003
29		2.404437498444167e-005
	1.115959799962010e+001
	7.525061772515036e-004
	-6.841446794472074e-001
	1.136171798431666e+001
	-7.525061772515036e-004
	-1.500000000000000e+001
	1.500000000000000e+001
	1.505012354503007e-003
	2.425521343749811e-003
	6.901847128627857e-006
	-2.432423190878438e-003
	2.560268000292363e-003
	7.308808829199265e-006
	-2.567576809121563e-003
	5.000000000000000e-003
	2.425521343788892e-003
	2.560268000253269e-003
	-6.901847128890366e-006
	-7.308808828947491e-006
	0.000000000000000e+000
	-5.000000000000000e-003
	-4.985789344042172e-003
30		2.599749998444168e-005
	1.115146244366046e+001
	8.131083312589824e-004
	-6.841431024545415e-001
	1.136985367120427e+001
	-8.131083312589824e-004
	-1.500000000000000e+001
	1.500000000000000e+001
	1.626216662517965e-003
	2.420097552488332e-003
	6.886425341775343e-006
	-2.426983977830105e-003
	2.565691704268529e-003
	7.324317901365523e-006
	-2.573016022169895e-003
	5.000000000000000e-003
	2.420097552530488e-003
	2.565691704226364e-003
	-6.886425342057106e-006
	-7.324317901092540e-006
	0.000000000000000e+000
	-5.000000000000000e-003
	-4.985789256756860e-003
31		2.795062498444167e-005
	1.114334433395043e+001
	8.735880341426213e-004
	-6.841414069129337e-001
	1.137797192033257e+001
	-8.735880341426213e-004
	-1.500000000000000e+001
	1.500000000000000e+001
	1.747176068285243e-003
	2.414685386399742e-003
	6.871009396444507e-006
	-2.421556395796186e-003
	2.571103777411597e-003
	7.339826792217496e-006
	-2.578443604203814e-003
	5.000000000000000e-003
	2.414685386444954e-003
	2.571103777366378e-003
	-6.871009396745230e-006
	-7.339826791923062e-006
	0.000000000000000e+000
	-5.000000000000000e-003
	-4.985789163811339e-003
32		2.990374998444168e-005
	1.113524486780126e+001
	9.339361778816273e-004
	-6.841395939885303e-001
	1.138607153712903e+001
	-9.339361778816273e-004
	-1.500000000000000e+001
	1.500000000000000e+001
	1.867872355763255e-003
	2.409285641865879e-003
	6.855666005268621e-006
	-2.416141307871146e-003
	2.576503421513933e-003
	7.355270614921950e-006
	-2.583858692128853e-003
	5.000000000000000e-003
	2.409285641913982e-003
	2.576503421465824e-003
	-6.855666005587291e-006
	-7.355270614607327e-006
	0.000000000000000e+000
	-5.000000000000000e-003
	-4.985789063379811e-003
33		3.185687498444167e-005
	1.112716541796386e+001
	9.941436742675319e-004
	-6.841376646513419e-001
	1.139415114586767e+001
	-9.941436742675319e-004
	-1.500000000000000e+001
	1.500000000000000e+001
	1.988287348535064e-003
	2.403899236037246e-003
	6.840333630093343e-006
	-2.410739569667339e-003
	2.581889721408400e-003
	7.370708924261810e-006
	-2.589260430332661e-003
	5.000000000000000e-003
	2.403899236088219e-003
	2.581889721357425e-003
	-6.840333630429598e-006
	-7.370708923926753e-006
	0.000000000000000e+000
	-5.000000000000000e-003
	-4.985788957445646e-003
34		3.380999998444168e-005
	1.111910717407145e+001
	1.054201456272839e-003
	-6.841356202092921e-001
	1.140220955974125e+001
	-1.054201456272839e-003
	-1.500000000000000e+001
	1.500000000000000e+001
	2.108402912545679e-003
	2.398526960118845e-003
	6.825078245952549e-006
	-2.405352038364797e-003
	2.587261884006025e-003
	7.386077629179089e-006
	-2.594647961635203e-003
	5.000000000000000e-003
	2.398526960172500e-003
	2.587261883952370e-003
	-6.825078246305288e-006
	-7.386077628825077e-006
	0.000000000000000e+000
	-5.000000000000000e-003
	-4.985788844124869e-003
35		3.576312498444168e-005
	1.111107149854127e+001
	1.114100479416490e-003
	-6.841334617734086e-001
	1.141024541324592e+001
	-1.114100479416490e-003
	-1.500000000000000e+001
	1.500000000000000e+001
	2.228200958832980e-003
	2.393169724446411e-003
	6.809839004961077e-006
	-2.399979563451373e-003
	2.592619001028795e-003
	7.401435519831840e-006
	-2.600020436548627e-003
	5.000000000000000e-003
	2.393169724502723e-003
	2.592619000972489e-003
	-6.809839005329860e-006
	-7.401435519458579e-006
	0.000000000000000e+000
	-5.000000000000000e-003
	-4.985788725475207e-003
36		3.771624998444167e-005
	1.110305957220586e+001
	1.173831723125924e-003
	-6.841311907904425e-001
	1.141825752846195e+001
	-1.173831723125924e-003
	-1.500000000000000e+001
	1.500000000000000e+001
	2.347663446251848e-003
	2.387828314299939e-003
	6.794681150450655e-006
	-2.394622995450389e-003
	2.597960285254849e-003
	7.416719294762984e-006
	-2.605377004549611e-003
	5.000000000000000e-003
	2.387828314358699e-003
	2.597960285196096e-003
	-6.794681150834298e-006
	-7.416719294372123e-006
	0.000000000000000e+000
	-5.000000000000000e-003
	-4.985788599554787e-003
37		3.966937498444167e-005
	1.109507274606076e+001
	1.233386192095548e-003
	-6.841288085093182e-001
	1.142624455119676e+001
	-1.233386192095548e-003
	-1.500000000000000e+001
	1.500000000000000e+001
	2.466772384191096e-003
	2.382503632474310e-003
	6.779544515045575e-006
	-2.389283176989356e-003
	2.603284836020672e-003
	7.431986989972433e-006
	-2.610716823010644e-003
	5.000000000000000e-003
	2.382503632535496e-003
	2.603284835959497e-003
	-6.779544515443622e-006
	-7.431986989563640e-006
	0.000000000000000e+000
	-5.000000000000000e-003
	-4.985788468494981e-003
38		4.162249998444168e-005
	1.108711219103981e+001
	1.292754917641393e-003
	-6.841263165123173e-001
	1.143420531351575e+001
	-1.292754917641393e-003
	-1.500000000000000e+001
	1.500000000000000e+001
	2.585509835282785e-003
	2.377196457592805e-003
	6.764493616236190e-006
	-2.383960951209041e-003
	2.608591872703480e-003
	7.447176087478321e-006
	-2.616039048790958e-003
	5.000000000000000e-003
	2.377196457656170e-003
	2.608591872640130e-003
	-6.764493616647241e-006
	-7.447176087053565e-006
	0.000000000000000e+000
	-5.000000000000000e-003
	-4.985788330296285e-003
39		4.357562498444168e-005
	1.107917924565444e+001
	1.351928959051768e-003
	-6.841237161827990e-001
	1.144213847360107e+001
	-1.351928959051768e-003
	-1.500000000000000e+001
	1.500000000000000e+001
	2.703857918103535e-003
	2.371907684200409e-003
	6.749468957550344e-006
	-2.378657153157960e-003
	2.613880502962570e-003
	7.462343879469300e-006
	-2.621342846842040e-003
	5.000000000000000e-003
	2.371907684265954e-003
	2.613880502897043e-003
	-6.749468957974103e-006
	-7.462343879028034e-006
	0.000000000000000e+000
	-5.000000000000000e-003
	-4.985788187162979e-003
40		4.552874998444167e-005
	1.107127506986898e+001
	1.410899404933695e-003
	-6.841210092349411e-001
	1.145004287457372e+001
	-1.410899404933695e-003
	-1.500000000000000e+001
	1.500000000000000e+001
	2.821798809867389e-003
	2.366638083550070e-003
	6.734534336466249e-006
	-2.373372617886535e-003
	2.619149953488110e-003
	7.477428625355232e-006
	-2.626627382113465e-003
	5.000000000000000e-003
	2.366638083617518e-003
	2.619149953420682e-003
	-6.734534336901150e-006
	-7.477428624899648e-006
	0.000000000000000e+000
	-5.000000000000000e-003
	-4.985788037038180e-003
41		4.748187498444167e-005
	1.106340098867631e+001
	1.469657374554934e-003
	-6.841181971827434e-001
	1.145791718802621e+001
	-1.469657374554934e-003
	-1.500000000000000e+001
	1.500000000000000e+001
	2.939314749109868e-003
	2.361388541246518e-003
	6.719630917966015e-006
	-2.368108172164483e-003
	2.624399340951781e-003
	7.492486883736676e-006
	-2.631891827835517e-003
	5.000000000000000e-003
	2.361388541315863e-003
	2.624399340882459e-003
	-6.719630918411649e-006
	-7.492486883266269e-006
	0.000000000000000e+000
	-5.000000000000000e-003
	-4.985787882198298e-003
42		4.943499998444168e-005
	1.105555815002997e+001
	1.528194019181391e-003
	-6.841152818683186e-001
	1.146576026917601e+001
	-1.528194019181391e-003
	-1.500000000000000e+001
	1.500000000000000e+001
	3.056388038362781e-003
	2.356159820478376e-003
	6.704821785318810e-006
	-2.362864642263695e-003
	2.629627900050938e-003
	7.507457685367823e-006
	-2.637135357736305e-003
	5.000000000000000e-003
	2.356159820549324e-003
	2.629627899980018e-003
	-6.704821785773555e-006
	-7.507457684884927e-006
	0.000000000000000e+000
	-5.000000000000000e-003
	-4.985787720529314e-003
43		5.138812498444168e-005
	1.104774786440015e+001
	1.586500523409698e-003
	-6.841122649321909e-001
	1.147357080403135e+001
	-1.586500523409698e-003
	-1.500000000000000e+001
	1.500000000000000e+001
	3.173001046819396e-003
	2.350952797239880e-003
	6.690048755669223e-006
	-2.357642845995548e-003
	2.634834757139094e-003
	7.522396865358292e-006
	-2.642357154004452e-003
	5.000000000000000e-003
	2.350952797312436e-003
	2.634834757066569e-003
	-6.690048756132747e-006
	-7.522396864862307e-006
	0.000000000000000e+000
	-5.000000000000000e-003
	-4.985787554378973e-003
44		5.334124998444167e-005
	1.103997126671989e+001
	1.644568106494787e-003
	-6.841091483401304e-001
	1.148134766091553e+001
	-1.644568106494787e-003
	-1.500000000000000e+001
	1.500000000000000e+001
	3.289136212989574e-003
	2.345768225982475e-003
	6.675374203859729e-006
	-2.352443600186334e-003
	2.640019155593879e-003
	7.537244219788794e-006
	-2.647556399813666e-003
	5.000000000000000e-003
	2.345768226056315e-003
	2.640019155520073e-003
	-6.675374204330249e-006
	-7.537244219282287e-006
	0.000000000000000e+000
	-5.000000000000000e-003
	-4.985787381576352e-003
45		5.529437498444167e-005
	1.103222965196489e+001
	1.702388023672235e-003
	-6.841059338547588e-001
	1.148908954122551e+001
	-1.702388023672235e-003
	-1.500000000000000e+001
	1.500000000000000e+001
	3.404776047344470e-003
	2.340606972441184e-003
	6.660740590065335e-006
	-2.347267713031250e-003
	2.645180232098505e-003
	7.552054870245619e-006
	-2.652732286968751e-003
	5.000000000000000e-003
	2.340606972516326e-003
	2.645180232023404e-003
	-6.660740590542541e-006
	-7.552054869727883e-006
	0.000000000000000e+000
	-5.000000000000000e-003
	-4.985787204539688e-003
46		5.724749998444168e-005
	1.102452414107175e+001
	1.759951567475193e-003
	-6.841026235609220e-001
	1.149679532736610e+001
	-1.759951567475193e-003
	-1.500000000000000e+001
	1.500000000000000e+001
	3.519903134950387e-003
	2.335469781679837e-003
	6.646209586467186e-006
	-2.342115991266304e-003
	2.650317239361554e-003
	7.566769372142893e-006
	-2.657884008733696e-003
	5.000000000000000e-003
	2.335469781755932e-003
	2.650317239285501e-003
	-6.646209586949189e-006
	-7.566769371616667e-006
	0.000000000000000e+000
	-5.000000000000000e-003
	-4.985787021041390e-003
47		5.920062498444168e-005
	1.101685601258412e+001
	1.817250069045700e-003
	-6.840992193386145e-001
	1.150446373706182e+001
	-1.817250069045700e-003
	-1.500000000000000e+001
	1.500000000000000e+001
	3.634500138091401e-003
	2.330357508548386e-003
	6.631724287299685e-006
	-2.336989232835684e-003
	2.655429325020938e-003
	7.581442143379046e-006
	-2.663010767164316e-003
	5.000000000000000e-003
	2.330357508625453e-003
	2.655429324943918e-003
	-6.631724287786158e-006
	-7.581442142843607e-006
	0.000000000000000e+000
	-5.000000000000000e-003
	-4.985786833569323e-003
48		6.115374998444167e-005
	1.100922637250162e+001
	1.874274899440180e-003
	-6.840957233868843e-001
	1.151209366773915e+001
	-1.874274899440180e-003
	-1.500000000000000e+001
	1.500000000000000e+001
	3.748549798880361e-003
	2.325270888096226e-003
	6.617345667835416e-006
	-2.331888233764061e-003
	2.660515751743212e-003
	7.596014492727452e-006
	-2.668111766235939e-003
	5.000000000000000e-003
	2.325270888173903e-003
	2.660515751665588e-003
	-6.617345668324413e-006
	-7.596014492185670e-006
	0.000000000000000e+000
	-5.000000000000000e-003
	-4.985786639839438e-003
49		6.310687498444167e-005
	1.100163648203442e+001
	1.931017470928929e-003
	-6.840921376980887e-001
	1.151968385435298e+001
	-1.931017470928929e-003
	-1.500000000000000e+001
	1.500000000000000e+001
	3.862034941857859e-003
	2.320210763686366e-003
	6.603017447558897e-006
	-2.326813781133925e-003
	2.665575678721976e-003