Title: * E:\Temp\raw\ascii\tran\tran_stepped.asc
Date: Fri Aug 02 17:57:37 2013
Plotname: Transient Analysis
Flags: real forward stepped
No. Variables: 23
No. Points:         2084
Offset:   0.0000000000000000e+000
Command: Linear Technology Corporation LTspice IV
Variables:
	0	time	time
	1	V(uc1)	voltage
	2	V(ue1)	voltage
	3	V(ue12)	voltage
	4	V(uc2)	voltage
	5	V(ue2)	voltage
	6	V(vee)	voltage
	7	V(vcc)	voltage
	8	V(ued)	voltage
	9	Ic(Q2)	device_current
	10	Ib(Q2)	device_current
	11	Ie(Q2)	device_current
	12	Ic(Q1)	device_current
	13	Ib(Q1)	device_current
	14	Ie(Q1)	device_current
	15	I(I1)	device_current
	16	I(R2)	device_current
	17	I(R1)	device_current
	18	I(E2)	device_current
	19	I(E1)	device_current
	20	I(V1)	device_current
	21	I(Ve)	device_current
	22	I(Vc)	device_current
Values:
0		0.000000000000000e+000
	1.126065760855976e+001
	0.000000000000000e+000
	-6.841541034902620e-001
	1.126065760855882e+001
	0.000000000000000e+000
	-1.500000000000000e+001
	1.500000000000000e+001
	0.000000000000000e+000
	2.492894927628766e-003
	7.105075210837909e-006
	-2.500001046852188e-003
	2.492894927626944e-003
	7.105075210844848e-006
	-2.500001046852227e-003
	5.000000000000000e-003
	2.492894927627453e-003
	2.492894927626824e-003
	-7.105072373087475e-006
	-7.105072373080545e-006
	0.000000000000000e+000
	-5.000000000000000e-003
	-4.985789855254276e-003
1		1.953124988129940e-011
	1.126065759882978e+001
	6.135923114251655e-010
	-6.841541032368733e-001
	1.126065759871821e+001
	-6.135923114251655e-010
	-1.500000000000000e+001
	1.500000000000000e+001
	1.227184622850331e-009
	2.492894934187819e-003
	7.102548785281257e-006
	-2.499997482971213e-003
	2.492894934113098e-003
	7.107582916002914e-006
	-2.500002517028997e-003
	5.000000000000000e-003
	2.492894934187863e-003
	2.492894934113481e-003
	-7.102548782667029e-006
	-7.107582914667177e-006
	0.000000000000000e+000
	-5.000000000000000e-003
	-4.985789868301361e-003
2		3.906249976259879e-011
	1.126065758883488e+001
	1.227184622850322e-009
	-6.841541029893419e-001
	1.126065758972094e+001
	-1.227184622850322e-009
	-1.500000000000000e+001
	1.500000000000000e+001
	2.454369245700643e-009
	2.492894940187374e-003
	7.102485303656786e-006
	-2.499997425491088e-003
	2.492894940777853e-003
	7.107633732466798e-006
	-2.500002574509368e-003
	5.000000000000000e-003
	2.492894940186037e-003
	2.492894940776747e-003
	-7.102485303667194e-006
	-7.107633732683638e-006
	0.000000000000000e+000
	-5.000000000000000e-003
	-4.985789880962786e-003
3		7.812499952519758e-011
	1.126065756830844e+001
	2.454369245700569e-009
	-6.841541025057208e-001
	1.126065757339144e+001
	-2.454369245700569e-009
	-1.500000000000000e+001
	1.500000000000000e+001
	4.908738491401139e-009
	2.492894951072959e-003
	7.102359490415017e-006
	-2.499997310561193e-003
	2.492894954460922e-003
	7.107734977900709e-006
	-2.500002689438674e-003
	5.000000000000000e-003
	2.492894951072373e-003
	2.492894954461038e-003
	-7.102359487642929e-006
	-7.107734977918057e-006
	0.000000000000000e+000
	-5.000000000000000e-003
	-4.985789905533423e-003
4		1.562499990503952e-010
	1.126065752396130e+001
	4.908738491400547e-009
	-6.841541016040197e-001
	1.126065755047162e+001
	-4.908738491400547e-009
	-1.500000000000000e+001
	1.500000000000000e+001
	9.817476982801095e-009
	2.492894966352507e-003
	7.102114541777255e-006
	-2.499997080892154e-003
	2.492894984026774e-003
	7.107935082215772e-006
	-2.500002919107375e-003
	5.000000000000000e-003
	2.492894966352252e-003
	2.492894984025803e-003
	-7.102114541912563e-006
	-7.107935080963301e-006
	0.000000000000000e+000
	-5.000000000000000e-003
	-4.985789950378075e-003
5		3.124999981007903e-010
	1.126065742146435e+001
	9.817476982796363e-009
	-6.841541000343662e-001
	1.126065754124677e+001
	-9.817476982796363e-009
	-1.500000000000000e+001
	1.500000000000000e+001
	1.963495396559273e-008
	2.492894972503327e-003
	7.101649779321737e-006
	-2.499996622280954e-003
	2.492895052358285e-003
	7.108325362769740e-006
	-2.500003377718824e-003
	5.000000000000000e-003
	2.492894972502151e-003
	2.492895052357102e-003
	-7.101649779905905e-006
	-7.108325361437906e-006
	0.000000000000000e+000
	-5.000000000000000e-003
	-4.985790024859273e-003
6		6.249999962015806e-010
	1.126065715802617e+001
	1.963495396555488e-008
	-6.841540976435636e-001
	1.126065765308409e+001
	-1.963495396555488e-008
	-1.500000000000000e+001
	1.500000000000000e+001
	3.926990793110976e-008
	2.492894897944453e-003
	7.100809845546861e-006
	-2.499995707787984e-003
	2.492895227983790e-003
	7.109064229654950e-006
	-2.500004292212114e-003
	5.000000000000000e-003
	2.492894897943943e-003
	2.492895227982556e-003
	-7.100809843729738e-006
	-7.109064229626760e-006
	0.000000000000000e+000
	-5.000000000000000e-003
	-4.985790125926592e-003
7		1.249999992403161e-009
	1.126065639030639e+001
	3.926990793080696e-008
	-6.841540948263404e-001
	1.126065829869716e+001
	-3.926990793080696e-008
	-1.500000000000000e+001
	1.500000000000000e+001
	7.853981586161392e-008
	2.492894467536489e-003
	7.099420842688708e-006
	-2.499993888378249e-003
	2.492895739795807e-003
	7.110371826006784e-006
	-2.500006111621752e-003
	5.000000000000000e-003
	2.492894467535224e-003
	2.492895739795737e-003
	-7.099420840858683e-006
	-7.110371825214124e-006
	0.000000000000000e+000
	-5.000000000000000e-003
	-4.985790207331222e-003
8		2.499999984806323e-009
	1.126065397216636e+001
	7.853981585919155e-008
	-6.841540928139446e-001
	1.126066076875088e+001
	-7.853981585919155e-008
	-1.500000000000000e+001
	1.500000000000000e+001
	1.570796317183831e-007
	2.492892820833470e-003
	7.097458519889934e-006
	-2.499990279352879e-003
	2.492897351890212e-003
	7.112368757484816e-006
	-2.500009720647063e-003
	5.000000000000000e-003
	2.492892820832748e-003
	2.492897351889095e-003
	-7.097458521350408e-006
	-7.112368758624421e-006
	0.000000000000000e+000
	-5.000000000000000e-003
	-4.985790172721297e-003
9		4.999999969612645e-009
	1.126064664552430e+001
	1.570796316990042e-007
	-6.841540923795164e-001
	1.126066835081350e+001
	-1.570796316990042e-007
	-1.500000000000000e+001
	1.500000000000000e+001
	3.141592633980084e-007
	2.492887766125977e-003
	7.095369348262003e-006
	-2.499983135471030e-003
	2.492902236317491e-003
	7.114628212478145e-006
	-2.500016864528978e-003
	5.000000000000000e-003
	2.492887766124333e-003
	2.492902236317136e-003
	-7.095369347339536e-006
	-7.114628211152274e-006
	0.000000000000000e+000
	-5.000000000000000e-003
	-4.985790002442275e-003
10		9.999999939225290e-009
	1.126062752699633e+001
	3.141592632429770e-007
	-6.841540924333784e-001
	1.126068767190888e+001
	-3.141592632429770e-007
	-1.500000000000000e+001
	1.500000000000000e+001
	6.283185264859540e-007
	2.492874885393849e-003
	7.094086919996737e-006
	-2.499968972314613e-003
	2.492914982003124e-003
	7.116045684303377e-006
	-2.500031027685404e-003
	5.000000000000000e-003
	2.492874885394079e-003
	2.492914982002445e-003
	-7.094086920724982e-006
	-7.116045684221750e-006
	0.000000000000000e+000
	-5.000000000000000e-003
	-4.985789867395675e-003
11		1.999999987845058e-008
	1.126058551708815e+001
	6.283185252457029e-007
	-6.841540923675966e-001
	1.126072970273518e+001
	-6.283185252457029e-007
	-1.500000000000000e+001
	1.500000000000000e+001
	1.256637050491406e-006
	2.492846864845461e-003
	7.093884652944637e-006
	-2.499940749496048e-003
	2.492942988607831e-003
	7.116261897282403e-006
	-2.500059250504005e-003
	5.000000000000000e-003
	2.492846864843211e-003
	2.492942988607901e-003
	-7.093884652225289e-006
	-7.116261897139112e-006
	0.000000000000000e+000
	-5.000000000000000e-003
	-4.985789853452305e-003
12		3.999999975690116e-008
	1.126050104356689e+001
	1.256637040569398e-006
	-6.841540923924261e-001
	1.126081417284479e+001
	-1.256637040569398e-006
	-1.500000000000000e+001
	1.500000000000000e+001
	2.513274081138795e-006
	2.492790551437755e-003
	7.093764883311024e-006
	-2.499884316320959e-003
	2.492999304288151e-003
	7.116379390516115e-006
	-2.500115683679085e-003
	5.000000000000000e-003
	2.492790551436805e-003
	2.492999304288743e-003
	-7.093764883232823e-006
	-7.116379390545609e-006
	0.000000000000000e+000
	-5.000000000000000e-003
	-4.985789855725602e-003
13		7.999999951380232e-008
	1.126033225943793e+001
	2.513274001762730e-006
	-6.841540922753669e-001
	1.126098295771111e+001
	-2.513274001762730e-006
	-1.500000000000000e+001
	1.500000000000000e+001
	5.026548003525459e-006
	2.492678028191218e-003
	7.093417185689868e-006
	-2.499771445377158e-003
	2.493111827042623e-003
	7.116727582111892e-006
	-2.500228554622859e-003
	5.000000000000000e-003
	2.492678028192594e-003
	2.493111827041381e-003
	-7.093417186093513e-006
	-7.116727582085012e-006
	0.000000000000000e+000
	-5.000000000000000e-003
	-4.985789855231359e-003
14		1.599999990276046e-007
	1.125999458495060e+001
	5.026547368516965e-006
	-6.841540919971393e-001
	1.126132063216877e+001
	-5.026547368516965e-006
	-1.500000000000000e+001
	1.500000000000000e+001
	1.005309473703393e-005
	2.492452911888614e-003
	7.092794707296152e-006
	-2.499545706594390e-003
	2.493336943367096e-003
	7.117350040218955e-006
	-2.500454293405616e-003
	5.000000000000000e-003
	2.492452911887484e-003
	2.493336943366266e-003
	-7.092794707154026e-006
	-7.117350040197626e-006
	0.000000000000000e+000
	-5.000000000000000e-003
	-4.985789855255431e-003
15		3.199999980552093e-007
	1.125931932362493e+001
	1.005308965696693e-005
	-6.841540907033581e-001
	1.126199589315515e+001
	-1.005308965696693e-005
	-1.500000000000000e+001
	1.500000000000000e+001
	2.010617931393387e-005
	2.492002737897532e-003
	7.091489038152587e-006
	-2.499094226935048e-003
	2.493787117582341e-003
	7.118655482064018e-006
	-2.500905773064970e-003
	5.000000000000000e-003
	2.492002737896566e-003
	2.493787117583378e-003
	-7.091489038181563e-006
	-7.118655482129155e-006
	0.000000000000000e+000
	-5.000000000000000e-003
	-4.985789855478227e-003
16		6.399999961104186e-007
	1.125796872719907e+001
	2.010613867342871e-005
	-6.841540856999591e-001
	1.126334649017487e+001
	-2.010613867342871e-005
	-1.500000000000000e+001
	1.500000000000000e+001
	4.021227734685742e-005
	2.491102339883231e-003
	7.088933421702350e-006
	-2.498191273304366e-003
	2.494687515201167e-003
	7.121211496342563e-006
	-2.501808726695643e-003
	5.000000000000000e-003
	2.491102339883419e-003
	2.494687515200618e-003
	-7.088933421710487e-006
	-7.121211496360588e-006
	0.000000000000000e+000
	-5.000000000000000e-003
	-4.985789855083181e-003
17		1.279999992220837e-006
	1.125526765033104e+001
	4.021195222380193e-005
	-6.841540655096978e-001
	1.126604756768794e+001
	-4.021195222380193e-005
	-1.500000000000000e+001
	1.500000000000000e+001
	8.042390444760386e-005
	2.489301621542676e-003
	7.083769430682335e-006
	-2.496385390972883e-003
	2.496488233113443e-003
	7.126375914994171e-006
	-2.503614609027153e-003
	5.000000000000000e-003
	2.489301621541376e-003
	2.496488233112638e-003
	-7.083769430697853e-006
	-7.126375914991558e-006
	0.000000000000000e+000
	-5.000000000000000e-003
	-4.985789854653777e-003
18		2.559999984441674e-006
	1.124986574836392e+001
	8.042130349470393e-005
	-6.841539849153197e-001
	1.127144947585911e+001
	-8.042130349470393e-005
	-1.500000000000000e+001
	1.500000000000000e+001
	1.608426069894079e-004
	2.485700349428352e-003
	7.073495826285379e-006
	-2.492773845253063e-003
	2.500089501090771e-003
	7.136653656774941e-006
	-2.507226154746906e-003
	5.000000000000000e-003
	2.485700349427262e-003
	2.500089501090724e-003
	-7.073495826285816e-006
	-7.136653656793278e-006
	0.000000000000000e+000
	-5.000000000000000e-003
	-4.985789850517535e-003
19		4.513124984441674e-006
	1.124162471638790e+001
	1.417650021106860e-004
	-6.841537583096532e-001
	1.127969052459537e+001
	-1.417650021106860e-004
	-1.500000000000000e+001
	1.500000000000000e+001
	2.835300042213721e-004
	2.480206316935403e-003
	7.057783473824427e-006
	-2.487264100406296e-003
	2.505583522412008e-003
	7.152377182443935e-006
	-2.512735899593720e-003
	5.000000000000000e-003
	2.480206316936420e-003
	2.505583522408067e-003
	-7.057783473850111e-006
	-7.152377182443497e-006
	0.000000000000000e+000
	-5.000000000000000e-003
	-4.985789839346544e-003
20		6.466249984441674e-006
	1.123338667960577e+001
	2.030873514388029e-004
	-6.841534067998798e-001
	1.128792858971138e+001
	-2.030873514388029e-004
	-1.500000000000000e+001
	1.500000000000000e+001
	4.061747028776058e-004
	2.474714273515610e-003
	7.042116415624603e-006
	-2.481756389931224e-003
	2.511075546940127e-003
	7.168063131049139e-006
	-2.518243610068762e-003
	5.000000000000000e-003
	2.474714273525745e-003
	2.511075546929490e-003
	-7.042116415697064e-006
	-7.168063131001454e-006
	0.000000000000000e+000
	-5.000000000000000e-003
	-4.985789820454633e-003
21		8.419374984441674e-006
	1.122515304881653e+001
	2.643791165588071e-004
	-6.841529304644972e-001
	1.129616225813142e+001
	-2.643791165588071e-004
	-1.500000000000000e+001
	1.500000000000000e+001
	5.287582331176142e-004
	2.469225161235867e-003
	7.026428759052065e-006
	-2.476251589993269e-003
	2.516564634133636e-003
	7.183775872691072e-006
	-2.523748410006746e-003
	5.000000000000000e-003
	2.469225161245717e-003
	2.516564634122312e-003
	-7.026428759150444e-006
	-7.183775872623461e-006
	0.000000000000000e+000
	-5.000000000000000e-003
	-4.985789795368819e-003
22		1.037249998444167e-005
	1.121692504220889e+001
	3.256310671563204e-004
	-6.841523297292542e-001
	1.130439031395178e+001
	-3.256310671563204e-004
	-1.500000000000000e+001
	1.500000000000000e+001
	6.512621343126408e-004
	2.463739790683137e-003
	7.010790994641248e-006
	-2.470750581677600e-003
	2.522049971878348e-003
	7.199446445345396e-006
	-2.529249418322400e-003
	5.000000000000000e-003
	2.463739790698815e-003
	2.522049971860738e-003
	-7.010790994752590e-006
	-7.199446445244729e-006
	0.000000000000000e+000
	-5.000000000000000e-003
	-4.985789762560447e-003
23		1.232562498444168e-005
	1.120870406716263e+001
	3.868339789128851e-004
	-6.841516048248011e-001
	1.131261134739253e+001
	-3.868339789128851e-004
	-1.500000000000000e+001
	1.500000000000000e+001
	7.736679578257702e-004
	2.458259101720953e-003
	6.995137981486389e-006
	-2.465254239701172e-003
	2.527530621910852e-003
	7.215138389402922e-006
	-2.534745760298861e-003
	5.000000000000000e-003
	2.458259101738311e-003
	2.527530621891580e-003
	-6.995137981616686e-006
	-7.215138389272485e-006
	0.000000000000000e+000
	-5.000000000000000e-003
	-4.985789723631581e-003
24		1.427874998444168e-005
	1.120049134008271e+001
	4.479786348951128e-004
	-6.841507563278679e-001
	1.132082414443755e+001
	-4.479786348951128e-004
	-1.500000000000000e+001
	1.500000000000000e+001
	8.959572697902255e-004
	2.452783903687889e-003
	6.979539442358867e-006
	-2.459763443128871e-003
	2.533005773301564e-003
	7.230783570399159e-006
	-2.540236556871157e-003
	5.000000000000000e-003
	2.452783903708300e-003
	2.533005773278193e-003
	-6.979539442508775e-006
	-7.230783570272927e-006
	0.000000000000000e+000
	-5.000000000000000e-003
	-4.985789676989714e-003
25		1.623187498444167e-005
	1.119228826374640e+001
	5.090558269427202e-004
	-6.841497846203235e-001
	1.132902729978563e+001
	-5.090558269427202e-004
	-1.500000000000000e+001
	1.500000000000000e+001
	1.018111653885440e-003
	2.447315133451347e-003
	6.963930977605644e-006
	-2.454279064428299e-003
	2.538474490861572e-003
	7.246444710154288e-006
	-2.545720935571680e-003
	5.000000000000000e-003
	2.447315133476247e-003
	2.538474490835736e-003
	-6.963930977786467e-006
	-7.246444709993770e-006
	0.000000000000000e+000
	-5.000000000000000e-003
	-4.985789624312551e-003
26		1.818499998444168e-005
	1.118409605155846e+001
	5.700563570552444e-004
	-6.841486904288618e-001
	1.133721960250912e+001
	-5.700563570552444e-004
	-1.500000000000000e+001
	1.500000000000000e+001
	1.140112714110489e-003
	2.441853598299627e-003
	6.948381548355616e-006
	-2.448801979847533e-003
	2.543935965658711e-003
	7.262054495297751e-006
	-2.551198020152477e-003
	5.000000000000000e-003
	2.441853598327251e-003
	2.543935965627690e-003
	-6.948381548560862e-006
	-7.262054495093103e-006
	0.000000000000000e+000
	-5.000000000000000e-003
	-4.985789563956958e-003
27		2.013812498444168e-005
	1.117591610052134e+001
	6.309710387772283e-004
	-6.841474742852681e-001
	1.134539965296455e+001
	-6.309710387772283e-004
	-1.500000000000000e+001
	1.500000000000000e+001
	1.261942077554457e-003
	2.436400231325805e-003
	6.932827485742333e-006
	-2.443333058809596e-003
	2.549389266351297e-003
	7.277674839988073e-006
	-2.556666941190401e-003
	5.000000000000000e-003
	2.436400231356964e-003
	2.549389266319107e-003
	-6.932827485954962e-006
	-7.277674839786081e-006
	0.000000000000000e+000
	-5.000000000000000e-003
	-4.985789497676019e-003
28		2.209124998444168e-005
	1.116774961985688e+001
	6.917906985816661e-004
	-6.841461370647068e-001
	1.135356624450611e+001
	-6.917906985816661e-004
	-1.500000000000000e+001
	1.500000000000000e+001
	1.383581397163332e-003
	2.430955836960555e-003
	6.917336995300423e-006
	-2.437873173955834e-003
	2.554833586797357e-003
	7.293239245526638e-006
	-2.562126826044154e-003
	5.000000000000000e-003
	2.430955836995925e-003
	2.554833586762082e-003
	-6.917336995559904e-006
	-7.293239245288199e-006
	0.000000000000000e+000
	-5.000000000000000e-003
	-4.985789423757437e-003
29		2.404437498444168e-005
	1.115959799961929e+001
	7.525061772515039e-004
	-6.841446794472079e-001
	1.136171798431480e+001
	-7.525061772515039e-004
	-1.500000000000000e+001
	1.500000000000000e+001
	1.505012354503008e-003
	2.425521343751726e-003
	6.901847128657644e-006
	-2.432423190878195e-003
	2.560268000293381e-003
	7.308808829424382e-006
	-2.567576809121801e-003
	5.000000000000000e-003
	2.425521343790133e-003
	2.560268000253808e-003
	-6.901847128907194e-006
	-7.308808829165487e-006
	0.000000000000000e+000
	-5.000000000000000e-003
	-4.985789344043090e-003
30		2.599749998444168e-005
	1.115146244366146e+001
	8.131083312589827e-004
	-6.841431024545417e-001
	1.136985367120213e+001
	-8.131083312589827e-004
	-1.500000000000000e+001
	1.500000000000000e+001
	1.626216662517965e-003
	2.420097552486884e-003
	6.886425341745531e-006
	-2.426983977830327e-003
	2.565691704267607e-003
	7.324317901157756e-006
	-2.573016022169680e-003
	5.000000000000000e-003
	2.420097552531916e-003
	2.565691704225693e-003
	-6.886425342037804e-006
	-7.324317900866804e-006
	0.000000000000000e+000
	-5.000000000000000e-003
	-4.985789256754706e-003
31		2.795062498444168e-005
	1.114334433395182e+001
	8.735880341426215e-004
	-6.841414069129335e-001
	1.137797192033267e+001
	-8.735880341426215e-004
	-1.500000000000000e+001
	1.500000000000000e+001
	1.747176068285243e-003
	2.414685386399568e-003
	6.871009396453936e-006
	-2.421556395795978e-003
	2.571103777411020e-003
	7.339826792429323e-006
	-2.578443604204032e-003
	5.000000000000000e-003
	2.414685386444889e-003
	2.571103777365452e-003
	-6.871009396764456e-006
	-7.339826792130696e-006
	0.000000000000000e+000
	-5.000000000000000e-003
	-4.985789163810537e-003
32		2.990374998444169e-005
	1.113524486779921e+001
	9.339361778816277e-004
	-6.841395939885306e-001
	1.138607153712907e+001
	-9.339361778816277e-004
	-1.500000000000000e+001
	1.500000000000000e+001
	1.867872355763256e-003
	2.409285641866979e-003
	6.855666005258697e-006
	-2.416141307871349e-003
	2.576503421514840e-003
	7.355270614692001e-006
	-2.583858692128672e-003
	5.000000000000000e-003
	2.409285641913952e-003
	2.576503421467193e-003
	-6.855666005562408e-006
	-7.355270614394432e-006
	0.000000000000000e+000
	-5.000000000000000e-003
	-4.985789063380645e-003
33		3.185687498444169e-005
	1.112716541796413e+001
	9.941436742675323e-004
	-6.841376646513415e-001
	1.139415114586907e+001
	-9.941436742675323e-004
	-1.500000000000000e+001
	1.500000000000000e+001
	1.988287348535065e-003
	2.403899236039268e-003
	6.840333630115828e-006
	-2.410739569667099e-003
	2.581889721408116e-003
	7.370708924471456e-006
	-2.589260430332883e-003
	5.000000000000000e-003
	2.403899236087285e-003
	2.581889721357247e-003
	-6.840333630443095e-006
	-7.370708924115760e-006
	0.000000000000000e+000
	-5.000000000000000e-003
	-4.985788957446617e-003
34		3.380999998444169e-005
	1.111910717407262e+001
	1.054201456272840e-003
	-6.841356202092921e-001
	1.140220955973943e+001
	-1.054201456272840e-003
	-1.500000000000000e+001
	1.500000000000000e+001
	2.108402912545680e-003
	2.398526960119657e-003
	6.825078245942184e-006
	-2.405352038364990e-003
	2.587261884006841e-003
	7.386077628963008e-006
	-2.594647961635022e-003
	5.000000000000000e-003
	2.398526960173716e-003
	2.587261883951586e-003
	-6.825078246291221e-006
	-7.386077628618797e-006
	0.000000000000000e+000
	-5.000000000000000e-003
	-4.985788844126159e-003
35		3.576312498444169e-005
	1.111107149854088e+001
	1.114100479416490e-003
	-6.841334617734087e-001
	1.141024541324591e+001
	-1.114100479416490e-003
	-1.500000000000000e+001
	1.500000000000000e+001
	2.228200958832981e-003
	2.393169724445921e-003
	6.809839004960144e-006
	-2.399979563451173e-003
	2.592619001028979e-003
	7.401435520068584e-006
	-2.600020436548819e-003
	5.000000000000000e-003
	2.393169724502727e-003
	2.592619000972748e-003
	-6.809839005330657e-006
	-7.401435519676779e-006
	0.000000000000000e+000
	-5.000000000000000e-003
	-4.985788725474930e-003
36		3.771624998444169e-005
	1.110305957220380e+001
	1.173831723125925e-003
	-6.841311907904428e-001
	1.141825752846270e+001
	-1.173831723125925e-003
	-1.500000000000000e+001
	1.500000000000000e+001
	2.347663446251849e-003
	2.387828314300093e-003
	6.794681150441683e-006
	-2.394622995450571e-003
	2.597960285255218e-003
	7.416719294542480e-006
	-2.605377004549425e-003
	5.000000000000000e-003
	2.387828314358199e-003
	2.597960285197466e-003
	-6.794681150824475e-006
	-7.416719294152559e-006
	0.000000000000000e+000
	-5.000000000000000e-003
	-4.985788599554138e-003
37		3.966937498444169e-005
	1.109507274606012e+001
	1.233386192095548e-003
	-6.841288085093185e-001
	1.142624455119801e+001
	-1.233386192095548e-003
	-1.500000000000000e+001
	1.500000000000000e+001
	2.466772384191097e-003
	2.382503632473120e-003
	6.779544515051405e-006
	-2.389283176989187e-003
	2.603284836021429e-003
	7.431986990184818e-006
	-2.610716823010839e-003
	5.000000000000000e-003
	2.382503632534662e-003
	2.603284835959917e-003
	-6.779544515457369e-006
	-7.431986989769825e-006
	0.000000000000000e+000
	-5.000000000000000e-003
	-4.985788468494143e-003
38		4.162249998444170e-005
	1.108711219103848e+001
	1.292754917641394e-003
	-6.841263165123175e-001
	1.143420531351504e+001
	-1.292754917641394e-003
	-1.500000000000000e+001
	1.500000000000000e+001
	2.585509835282787e-003
	2.377196457593214e-003
	6.764493616230480e-006
	-2.383960951209247e-003
	2.608591872703797e-003
	7.447176087260030e-006
	-2.616039048790731e-003
	5.000000000000000e-003
	2.377196457656643e-003
	2.608591872641011e-003
	-6.764493616650055e-006
	-7.447176086846003e-006
	0.000000000000000e+000
	-5.000000000000000e-003
	-4.985788330297283e-003
39		4.357562498444170e-005
	1.107917924565581e+001
	1.351928959051768e-003
	-6.841237161827991e-001
	1.144213847359866e+001
	-1.351928959051768e-003
	-1.500000000000000e+001
	1.500000000000000e+001
	2.703857918103536e-003
	2.371907684201023e-003
	6.749468957548484e-006
	-2.378657153157812e-003
	2.613880502965039e-003
	7.462343879675174e-006
	-2.621342846842211e-003
	5.000000000000000e-003
	2.371907684267558e-003
	2.613880502896125e-003
	-6.749468957975540e-006
	-7.462343879235760e-006
	0.000000000000000e+000
	-5.000000000000000e-003
	-4.985788187163687e-003
40		4.552874998444170e-005
	1.107127506986814e+001
	1.410899404933695e-003
	-6.841210092349408e-001
	1.145004287457619e+001
	-1.410899404933695e-003
	-1.500000000000000e+001
	1.500000000000000e+001
	2.821798809867391e-003
	2.366638083551064e-003
	6.734534336462722e-006
	-2.373372617886716e-003
	2.619149953487603e-003
	7.477428625158125e-006
	-2.626627382113277e-003
	5.000000000000000e-003
	2.366638083615873e-003
	2.619149953421238e-003
	-6.734534336888907e-006
	-7.477428624684556e-006
	0.000000000000000e+000
	-5.000000000000000e-003
	-4.985788037039150e-003
41		4.748187498444170e-005
	1.106340098867773e+001
	1.469657374554935e-003
	-6.841181971827430e-001
	1.145791718802706e+001
	-1.469657374554935e-003
	-1.500000000000000e+001
	1.500000000000000e+001
	2.939314749109870e-003
	2.361388541248437e-003
	6.719630917988608e-006
	-2.368108172164260e-003
	2.624399340953586e-003
	7.492486883922333e-006
	-2.631891827835728e-003
	5.000000000000000e-003
	2.361388541315291e-003
	2.624399340881516e-003
	-6.719630918423183e-006
	-7.492486883460444e-006
	0.000000000000000e+000
	-5.000000000000000e-003
	-4.985787882200225e-003
42		4.943499998444170e-005
	1.105555815003122e+001
	1.528194019181391e-003
	-6.841152818683179e-001
	1.146576026917794e+001
	-1.528194019181391e-003
	-1.500000000000000e+001
	1.500000000000000e+001
	3.056388038362783e-003
	2.356159820479608e-003
	6.704821785304477e-006
	-2.362864642263928e-003
	2.629627900053349e-003
	7.507457685195302e-006
	-2.637135357736054e-003
	5.000000000000000e-003
	2.356159820548044e-003
	2.629627899979190e-003
	-6.704821785749163e-006
	-7.507457684699352e-006
	0.000000000000000e+000
	-5.000000000000000e-003
	-4.985787720530632e-003
43		5.138812498444170e-005
	1.104774786439935e+001
	1.586500523409699e-003
	-6.841122649321909e-001
	1.147357080403138e+001
	-1.586500523409699e-003
	-1.500000000000000e+001
	1.500000000000000e+001
	3.173001046819397e-003
	2.350952797239815e-003
	6.690048755702382e-006
	-2.357642845995390e-003
	2.634834757140811e-003
	7.522396865561892e-006
	-2.642357154004623e-003
	5.000000000000000e-003
	2.350952797312410e-003
	2.634834757067103e-003
	-6.690048756160207e-006
	-7.522396865062122e-006
	0.000000000000000e+000
	-5.000000000000000e-003
	-4.985787554379798e-003
44		5.334124998444171e-005
	1.103997126672078e+001
	1.644568106494788e-003
	-6.841091483401304e-001
	1.148134766091461e+001
	-1.644568106494788e-003
	-1.500000000000000e+001
	1.500000000000000e+001
	3.289136212989576e-003
	2.345768225984095e-003
	6.675374203831434e-006
	-2.352443600186514e-003
	2.640019155594025e-003
	7.537244219584593e-006
	-2.647556399813508e-003
	5.000000000000000e-003
	2.345768226056927e-003
	2.640019155519481e-003
	-6.675374204309361e-006
	-7.537244219088480e-006
	0.000000000000000e+000
	-5.000000000000000e-003
	-4.985787381578290e-003
45		5.529437498444171e-005
	1.103222965196404e+001
	1.702388023672236e-003
	-6.841059338547592e-001
	1.148908954122562e+001
	-1.702388023672236e-003
	-1.500000000000000e+001
	1.500000000000000e+001
	3.404776047344472e-003
	2.340606972441741e-003
	6.660740590078539e-006
	-2.347267713031019e-003
	2.645180232098464e-003
	7.552054870445190e-006
	-2.652732286968962e-003
	5.000000000000000e-003
	2.340606972516256e-003
	2.645180232023975e-003
	-6.660740590556194e-006
	-7.552054869933573e-006
	0.000000000000000e+000
	-5.000000000000000e-003
	-4.985787204538684e-003
46		5.724749998444171e-005
	1.102452414107272e+001
	1.759951567475194e-003
	-6.841026235609216e-001
	1.149679532736842e+001
	-1.759951567475194e-003
	-1.500000000000000e+001
	1.500000000000000e+001
	3.519903134950389e-003
	2.335469781682091e-003
	6.646209586448244e-006
	-2.342115991266463e-003
	2.650317239361382e-003
	7.566769371944659e-006
	-2.657884008733528e-003
	5.000000000000000e-003
	2.335469781754385e-003
	2.650317239284854e-003
	-6.646209586919238e-006
	-7.566769371402445e-006
	0.000000000000000e+000
	-5.000000000000000e-003
	-4.985787021041788e-003
47		5.920062498444171e-005
	1.101685601258249e+001
	1.817250069045702e-003
	-6.840992193386148e-001
	1.150446373706137e+001
	-1.817250069045702e-003
	-1.500000000000000e+001
	1.500000000000000e+001
	3.634500138091403e-003
	2.330357508547032e-003
	6.631724287330138e-006
	-2.336989232835564e-003
	2.655429325023089e-003
	7.581442143581492e-006
	-2.663010767164448e-003
	5.000000000000000e-003
	2.330357508625751e-003
	2.655429324945008e-003
	-6.631724287826554e-006
	-7.581442143050004e-006
	0.000000000000000e+000
	-5.000000000000000e-003
	-4.985786833568796e-003
48		6.115374998444171e-005
	1.100922637250021e+001
	1.874274899440182e-003
	-6.840957233868847e-001
	1.151209366773934e+001
	-1.874274899440182e-003
	-1.500000000000000e+001
	1.500000000000000e+001
	3.748549798880363e-003
	2.325270888096924e-003
	6.617345667807838e-006
	-2.331888233764280e-003
	2.660515751745145e-003
	7.596014492510765e-006
	-2.668111766235703e-003
	5.000000000000000e-003
	2.325270888173772e-003
	2.660515751666526e-003
	-6.617345668283535e-006
	-7.596014491984069e-006
	0.000000000000000e+000
	-5.000000000000000e-003
	-4.985786639840733e-003
49		6.310687498444172e-005
	1.100163648203318e+001
	1.931017470928931e-003
	-6.840921376980892e-001
	1.151968385435102e+001
	-1.931017470928931e-003
	-1.500000000000000e+001
	1.500000000000000e+001
	3.862034941857862e-003
	2.320210763688478e-003
	6.603017447591440e-006
	-2.326813781133706e-003
	2.665575678722291e-003
	7.610540144316622e-006
	-2.673186218866280e-003
	5.000000000000000e-003