Title: * E:\Temp\raw\ascii\tran\tran.asc
Date: Fri Aug 02 17:57:28 2013
Plotname: Transient Analysis
Flags: real forward
No. Variables: 23
No. Points:         1042
Offset:   0.0000000000000000e+000
Command: Linear Technology Corporation LTspice IV
Variables:
	0	time	time
	1	V(uc1)	voltage
	2	V(ue1)	voltage
	3	V(ue12)	voltage
	4	V(uc2)	voltage
	5	V(ue2)	voltage
	6	V(vee)	voltage
	7	V(vcc)	voltage
	8	V(ued)	voltage
	9	Ic(Q2)	device_current
	10	Ib(Q2)	device_current
	11	Ie(Q2)	device_current
	12	Ic(Q1)	device_current
	13	Ib(Q1)	device_current
	14	Ie(Q1)	device_current
	15	I(I1)	device_current
	16	I(R2)	device_current
	17	I(R1)	device_current
	18	I(E2)	device_current
	19	I(E1)	device_current
	20	I(V1)	device_current
	21	I(Ve)	device_current
	22	I(Vc)	device_current
Values:
0		0.000000000000000e+000
	7.521988206167306e+000
	0.000000000000000e+000
	-7.040969836371461e-001
	7.521988206168095e+000
	0.000000000000000e+000
	-1.500000000000000e+001
	1.500000000000000e+001
	0.000000000000000e+000
	4.985341195889038e-003
	1.465885159484779e-005
	-5.000015425759318e-003
	4.985341195889949e-003
	1.465885159484779e-005
	-5.000015425759263e-003
	1.000000000000000e-002
	4.985341195887936e-003
	4.985341195888463e-003
	-1.465880411186768e-005
	-1.465880411189542e-005
	0.000000000000000e+000
	-1.000000000000000e-002
	-9.970682391776401e-003
1		1.953124988129940e-011
	7.521988078775535e+000
	6.135923114251655e-010
	-7.040969811521125e-001
	7.521988079476680e+000
	-6.135923114251655e-010
	-1.500000000000000e+001
	1.500000000000000e+001
	1.227184622850331e-009
	4.985341280350277e-003
	1.465496122873833e-005
	-4.999996241577865e-003
	4.985341280817739e-003
	1.466247760324030e-005
	-5.000003758420111e-003
	1.000000000000000e-002
	4.985341280348880e-003
	4.985341280816310e-003
	-1.465496122832199e-005
	-1.466247760451012e-005
	0.000000000000000e+000
	-1.000000000000000e-002
	-9.970682561165189e-003
2		3.906249976259879e-011
	7.521987954994401e+000
	1.227184622850322e-009
	-7.040969787421196e-001
	7.521987958310542e+000
	-1.227184622850322e-009
	-1.500000000000000e+001
	1.500000000000000e+001
	2.454369245700643e-009
	4.985341361127402e-003
	1.465476894270748e-005
	-4.999996130068570e-003
	4.985341363338052e-003
	1.466250659586978e-005
	-5.000003869932955e-003
	1.000000000000000e-002
	4.985341361126305e-003
	4.985341363337066e-003
	-1.465476894013662e-005
	-1.466250659376556e-005
	0.000000000000000e+000
	-1.000000000000000e-002
	-9.970682724463376e-003
3		7.812499952519758e-011
	7.521987714380392e+000
	2.454369245700569e-009
	-7.040969740676691e-001
	7.521987726731746e+000
	-2.454369245700569e-009
	-1.500000000000000e+001
	1.500000000000000e+001
	4.908738491401139e-009
	4.985341515512986e-003
	1.465439165089684e-005
	-4.999995907163032e-003
	4.985341523747795e-003
	1.466256908834798e-005
	-5.000004092835297e-003
	1.000000000000000e-002
	4.985341515512169e-003
	4.985341523746406e-003
	-1.465439165282412e-005
	-1.466256909132824e-005
	0.000000000000000e+000
	-1.000000000000000e-002
	-9.970683039258563e-003
4		1.562499990503952e-010
	7.521987271766224e+000
	4.908738491400547e-009
	-7.040969655406300e-001
	7.521987324734369e+000
	-4.908738491400547e-009
	-1.500000000000000e+001
	1.500000000000000e+001
	9.817476982801095e-009
	4.985341783511963e-003
	1.465367853961327e-005
	-4.999995462049213e-003
	4.985341818824048e-003
	1.466271912796500e-005
	-5.000004537950222e-003
	1.000000000000000e-002
	4.985341783510421e-003
	4.985341818822518e-003
	-1.465367853875632e-005
	-1.466271912775596e-005
	0.000000000000000e+000
	-1.000000000000000e-002
	-9.970683602332952e-003
5		3.124999981007903e-010
	7.521986513797731e+000
	9.817476982796363e-009
	-7.040969513175736e-001
	7.521986735405464e+000
	-9.817476982796363e-009
	-1.500000000000000e+001
	1.500000000000000e+001
	1.963495396559273e-008
	4.985342176397190e-003
	1.465239811217472e-005
	-4.999994574508517e-003
	4.985342324136243e-003
	1.466310135669977e-005
	-5.000005425491199e-003
	1.000000000000000e-002
	4.985342176396357e-003
	4.985342324134846e-003
	-1.465239811154762e-005
	-1.466310135689319e-005
	0.000000000000000e+000
	-1.000000000000000e-002
	-9.970684500531204e-003
6		6.249999962015806e-010
	7.521985340508532e+000
	1.963495396555488e-008
	-7.040969313659078e-001
	7.521986227987110e+000
	-1.963495396555488e-008
	-1.500000000000000e+001
	1.500000000000000e+001
	3.926990793110976e-008
	4.985342514676803e-003
	1.465029486641899e-005
	-4.999992809540299e-003
	4.985343106328288e-003
	1.466408413206151e-005
	-5.000007190459342e-003
	1.000000000000000e-002
	4.985342514675260e-003
	4.985343106327645e-003
	-1.465029486588665e-005
	-1.466408413219877e-005
	0.000000000000000e+000
	-1.000000000000000e-002
	-9.970685621002937e-003
7		1.249999992403161e-009
	7.521983559253152e+000
	3.926990793080696e-008
	-7.040969112932725e-001
	7.521986941965960e+000
	-3.926990793080696e-008
	-1.500000000000000e+001
	1.500000000000000e+001
	7.853981586161392e-008
	4.985342038690808e-003
	1.464727671708361e-005
	-4.999989315405145e-003
	4.985344293832038e-003
	1.466639076356678e-005
	-5.000010684594864e-003
	1.000000000000000e-002
	4.985342038689360e-003
	4.985344293831232e-003
	-1.464727671569854e-005
	-1.466639076291854e-005
	0.000000000000000e+000
	-1.000000000000000e-002
	-9.970686332520766e-003
8		2.499999984806323e-009
	7.521979702598404e+000
	7.853981585919155e-008
	-7.040969009555900e-001
	7.521991751176549e+000
	-7.853981585919155e-008
	-1.500000000000000e+001
	1.500000000000000e+001
	1.570796317183831e-007
	4.985338832549870e-003
	1.464360768585742e-005
	-4.999982440233510e-003
	4.985346864935885e-003
	1.467069483165472e-005
	-5.000017559766631e-003
	1.000000000000000e-002
	4.985338832548967e-003
	4.985346864934397e-003
	-1.464360768522674e-005
	-1.467069483179762e-005
	0.000000000000000e+000
	-1.000000000000000e-002
	-9.970685697483472e-003
9		4.999999969612645e-009
	7.521967653876258e+000
	1.570796316990042e-007
	-7.040969004097847e-001
	7.522006443510371e+000
	-1.570796316990042e-007
	-1.500000000000000e+001
	1.500000000000000e+001
	3.141592633980084e-007
	4.985329037660485e-003
	1.463994177518095e-005
	-4.999968979434315e-003
	4.985354897416667e-003
	1.467612315000924e-005
	-5.000031020565681e-003
	1.000000000000000e-002
	4.985329037659752e-003
	4.985354897415827e-003
	-1.463994177416418e-005
	-1.467612315073086e-005
	0.000000000000000e+000
	-1.000000000000000e-002
	-9.970683935075249e-003
10		9.999999939225290e-009
	7.521933589858419e+000
	3.141592632429770e-007
	-7.040969000020907e-001
	7.522042460357143e+000
	-3.141592632429770e-007
	-1.500000000000000e+001
	1.500000000000000e+001
	6.283185264859540e-007
	4.985305026429855e-003
	1.463754219628692e-005
	-4.999942568624018e-003
	4.985377606761075e-003
	1.467982461571593e-005
	-5.000057431376034e-003
	1.000000000000000e-002
	4.985305026428572e-003
	4.985377606761054e-003
	-1.463754219507233e-005
	-1.467982461483136e-005
	0.000000000000000e+000
	-1.000000000000000e-002
	-9.970682633189341e-003
11		1.999999987845058e-008
	7.521856175907985e+000
	6.283185252457029e-007
	-7.040968999077906e-001
	7.522120312423155e+000
	-6.283185252457029e-007
	-1.500000000000000e+001
	1.500000000000000e+001
	1.256637050491406e-006
	4.985253125051865e-003
	1.463708674722377e-005
	-4.999890211797909e-003
	4.985429216061678e-003
	1.468057214136160e-005
	-5.000109788202188e-003
	1.000000000000000e-002
	4.985253125051230e-003
	4.985429216061344e-003
	-1.463708674721582e-005
	-1.468057214111182e-005
	0.000000000000000e+000
	-1.000000000000000e-002
	-9.970682341111380e-003
12		3.999999975690116e-008
	7.521699496679450e+000
	1.256637040569398e-006
	-7.040968999112813e-001
	7.522276890696099e+000
	-1.256637040569398e-006
	-1.500000000000000e+001
	1.500000000000000e+001
	2.513274081138795e-006
	4.985148739537122e-003
	1.463684248417231e-005
	-4.999785582019477e-003
	4.985533668880973e-003
	1.468074910075594e-005
	-5.000214417980519e-003
	1.000000000000000e-002
	4.985148739535934e-003
	4.985533668880366e-003
	-1.463684248411367e-005
	-1.468074910091453e-005
	0.000000000000000e+000
	-1.000000000000000e-002
	-9.970682408415933e-003
13		7.999999951380232e-008
	7.521386718546427e+000
	2.513274001762730e-006
	-7.040968998331892e-001
	7.522589726003969e+000
	-2.513274001762730e-006
	-1.500000000000000e+001
	1.500000000000000e+001
	5.026548003525459e-006
	4.984940182665521e-003
	1.463611206532017e-005
	-4.999576294730013e-003
	4.985742187636625e-003
	1.468151763453383e-005
	-5.000423705269904e-003
	1.000000000000000e-002
	4.984940182664020e-003
	4.985742187635716e-003
	-1.463611206528040e-005
	-1.468151763449853e-005
	0.000000000000000e+000
	-1.000000000000000e-002
	-9.970682370300164e-003
14		1.599999990276046e-007
	7.520760795150270e+000
	5.026547368516965e-006
	-7.040968995742328e-001
	7.523215607436575e+000
	-5.026547368516965e-006
	-1.500000000000000e+001
	1.500000000000000e+001
	1.005309473703393e-005
	4.984522928376537e-003
	1.463480967063273e-005
	-4.999157738045401e-003
	4.986159469900450e-003
	1.468279205496572e-005
	-5.000842261954674e-003
	1.000000000000000e-002
	4.984522928375617e-003
	4.986159469899820e-003
	-1.463480967067542e-005
	-1.468279205501556e-005
	0.000000000000000e+000
	-1.000000000000000e-002
	-9.970682398274616e-003
15		3.199999980552093e-007
	7.519509247043898e+000
	1.005308965696693e-005
	-7.040968984989410e-001
	7.524467196012653e+000
	-1.005308965696693e-005
	-1.500000000000000e+001
	1.500000000000000e+001
	2.010617931393387e-005
	4.983688535993483e-003
	1.463207497677016e-005
	-4.998320610968452e-003
	4.986993835305552e-003
	1.468555372745592e-005
	-5.001679389031600e-003
	1.000000000000000e-002
	4.983688535991565e-003
	4.986993835304068e-003
	-1.463207497672664e-005
	-1.468555372744276e-005
	0.000000000000000e+000
	-1.000000000000000e-002
	-9.970682371297080e-003
16		6.399999961104186e-007
	7.517005892024174e+000
	2.010613867342871e-005
	-7.040968942360200e-001
	7.526970522036057e+000
	-2.010613867342871e-005
	-1.500000000000000e+001
	1.500000000000000e+001
	4.021227734685742e-005
	4.982019651975919e-003
	1.462672417612531e-005
	-4.996646376150538e-003
	4.988662738651269e-003
	1.469088519912706e-005
	-5.003353623849420e-003
	1.000000000000000e-002
	4.982019651975962e-003
	4.988662738650551e-003
	-1.462672417612048e-005
	-1.469088519909115e-005
	0.000000000000000e+000
	-1.000000000000000e-002
	-9.970682390624710e-003
17		1.279999992220837e-006
	7.511999513581658e+000
	4.021195222380193e-005
	-7.040968771558120e-001
	7.531976952070123e+000
	-4.021195222380193e-005
	-1.500000000000000e+001
	1.500000000000000e+001
	8.042390444760386e-005
	4.978682031954128e-003
	1.461591178266991e-005
	-4.993297943735354e-003
	4.992000324279498e-003
	1.470173198630567e-005
	-5.006702056264636e-003
	1.000000000000000e-002
	4.978682031953251e-003
	4.992000324278894e-003
	-1.461591178267402e-005
	-1.470173198629980e-005
	0.000000000000000e+000
	-1.000000000000000e-002
	-9.970682356231532e-003
18		2.559999984441674e-006
	7.501987109164237e+000
	8.042130349470393e-005
	-7.040968088828744e-001
	7.541989375138607e+000
	-8.042130349470393e-005
	-1.500000000000000e+001
	1.500000000000000e+001
	1.608426069894079e-004
	4.972007083243453e-003
	1.459440527033787e-005
	-4.986601488511832e-003
	4.998675260557315e-003
	1.472325093104822e-005
	-5.013398511488200e-003
	1.000000000000000e-002
	4.972007083240929e-003
	4.998675260557175e-003
	-1.459440527034950e-005
	-1.472325093104581e-005
	0.000000000000000e+000
	-1.000000000000000e-002
	-9.970682343799161e-003
19		4.513124984441674e-006
	7.486712463943591e+000
	1.417650021106860e-004
	-7.040966170297607e-001
	7.557264179395951e+000
	-1.417650021106860e-004
	-1.500000000000000e+001
	1.500000000000000e+001
	2.835300042213721e-004
	4.961823880400313e-003
	1.456152152379570e-005
	-4.976385401921910e-003
	5.008858357377630e-003
	1.475624070240881e-005
	-5.023614598078138e-003
	1.000000000000000e-002
	4.961823880402699e-003
	5.008858357370939e-003
	-1.456152152382225e-005
	-1.475624070235355e-005
	0.000000000000000e+000
	-1.000000000000000e-002
	-9.970682237775350e-003
20		6.466249984441674e-006
	7.471443250091030e+000
	2.030873514388029e-004
	-7.040963193860128e-001
	7.572533540738861e+000
	-2.030873514388029e-004
	-1.500000000000000e+001
	1.500000000000000e+001
	4.061747028776058e-004
	4.951644306162859e-003
	1.452874368209076e-005
	-4.966173049844674e-003
	5.019037833285796e-003
	1.478911687117132e-005
	-5.033826950155289e-003
	1.000000000000000e-002
	4.951644306174093e-003
	5.019037833272646e-003
	-1.452874368217980e-005
	-1.478911687102715e-005
	0.000000000000000e+000
	-1.000000000000000e-002
	-9.970682139446222e-003
21		8.419374984441674e-006
	7.456182201606890e+000
	2.643791165588071e-004
	-7.040959161060302e-001
	7.587794857866168e+000
	-2.643791165588071e-004
	-1.500000000000000e+001
	1.500000000000000e+001
	5.287582331176142e-004
	4.941470094740689e-003
	1.449593277905711e-005
	-4.955966027517393e-003
	5.029211865613398e-003
	1.482210687034625e-005
	-5.044033972482601e-003
	1.000000000000000e-002
	4.941470094755888e-003
	5.029211865595407e-003
	-1.449593277916352e-005
	-1.482210687020756e-005
	0.000000000000000e+000
	-1.000000000000000e-002
	-9.970681960351939e-003
22		1.037249998444167e-005
	7.440931403078537e+000
	3.256310671563204e-004
	-7.040954074600219e-001
	7.603045914168786e+000
	-3.256310671563204e-004
	-1.500000000000000e+001
	1.500000000000000e+001
	6.512621343126408e-004
	4.931302723866050e-003
	1.446323714363227e-005
	-4.945765961008058e-003
	5.039379064636858e-003
	1.485497435600471e-005
	-5.054234038991980e-003
	1.000000000000000e-002
	4.931302723887476e-003
	5.039379064614309e-003
	-1.446323714381733e-005
	-1.485497435585421e-005
	0.000000000000000e+000
	-1.000000000000000e-002
	-9.970681788500947e-003
23		1.232562498444168e-005
	7.425693580366841e+000
	3.868339789128851e-004
	-7.040947937301345e-001
	7.618284114545021e+000
	-3.868339789128851e-004
	-1.500000000000000e+001
	1.500000000000000e+001
	7.736679578257702e-004
	4.921143923611543e-003
	1.443051952096564e-005
	-4.935574443130911e-003
	5.049537613117798e-003
	1.488794375293869e-005
	-5.064425556869190e-003
	1.000000000000000e-002
	4.921143923636653e-003
	5.049537613088773e-003
	-1.443051952113155e-005
	-1.488794375277287e-005
	0.000000000000000e+000
	-1.000000000000000e-002
	-9.970681536727120e-003
24		1.427874998444168e-005
	7.410470817246123e+000
	4.479786348951128e-004
	-7.040940753140156e-001
	7.633507244987345e+000
	-4.479786348951128e-004
	-1.500000000000000e+001
	1.500000000000000e+001
	8.959572697902255e-004
	4.910995169977160e-003
	1.439792647300009e-005
	-4.925393096449563e-003
	5.059686121868441e-003
	1.492078168298110e-005
	-5.074606903550456e-003
	1.000000000000000e-002
	4.910995170008437e-003
	5.059686121835918e-003
	-1.439792647324198e-005
	-1.492078168271907e-005
	0.000000000000000e+000
	-1.000000000000000e-002
	-9.970681291843255e-003
25		1.623187498444167e-005
	7.395265829433689e+000
	5.090558269427202e-004
	-7.040932526208001e-001
	7.648712718610033e+000
	-5.090558269427202e-004
	-1.500000000000000e+001
	1.500000000000000e+001
	1.018111653885440e-003
	4.900858187558086e-003
	1.436532242896815e-005
	-4.915223509984807e-003
	5.069822780415400e-003
	1.495370960202722e-005
	-5.084776490015158e-003
	1.000000000000000e-002
	4.900858187593311e-003
	5.069822780377540e-003
	-1.436532242923903e-005
	-1.495370960173599e-005
	0.000000000000000e+000
	-1.000000000000000e-002
	-9.970680967970540e-003
26		1.818499998444168e-005
	7.380080697814281e+000
	5.700563570552444e-004
	-7.040923261747090e-001
	7.663898326091917e+000
	-5.700563570552444e-004
	-1.500000000000000e+001
	1.500000000000000e+001
	1.140112714110489e-003
	4.890734449232431e-003
	1.433285220277583e-005
	-4.905067301434143e-003
	5.079946201499069e-003
	1.498649706726637e-005
	-5.094932698565850e-003
	1.000000000000000e-002
	4.890734449272055e-003
	5.079946201457146e-003
	-1.433285220306145e-005
	-1.498649706684372e-005
	0.000000000000000e+000
	-1.000000000000000e-002
	-9.970680650729369e-003
27		2.013812498444168e-005
	7.364918125972412e+000
	6.309710387772283e-004
	-7.040912965108053e-001
	7.679061490756839e+000
	-6.309710387772283e-004
	-1.500000000000000e+001
	1.500000000000000e+001
	1.261942077554457e-003
	4.880625672783912e-003
	1.430038188103425e-005
	-4.894926054663655e-003
	5.090054582732339e-003
	1.501936260491932e-005
	-5.105073945336431e-003
	1.000000000000000e-002
	4.880625672828774e-003
	5.090054582685058e-003
	-1.430038188136792e-005
	-1.501936260453913e-005
	0.000000000000000e+000
	-1.000000000000000e-002
	-9.970680255513611e-003
28		2.209124998444168e-005
	7.349780189820897e+000
	6.917906985816661e-004
	-7.040901642786526e-001
	7.694200010018319e+000
	-6.917906985816661e-004
	-1.500000000000000e+001
	1.500000000000000e+001
	1.383581397163332e-003
	4.870533326603730e-003
	1.426805454817440e-005
	-4.884801381152406e-003
	5.100146540170668e-003
	1.505207867757564e-005
	-5.115198618847590e-003
	1.000000000000000e-002
	4.870533326654454e-003
	5.100146540119402e-003
	-1.426805454855813e-005
	-1.505207867715240e-005
	0.000000000000000e+000
	-1.000000000000000e-002
	-9.970679866772343e-003
29		2.404437498444168e-005
	7.334669578856403e+000
	7.525061772515039e-004
	-7.040889301378659e-001
	7.709311319407300e+000
	-7.525061772515039e-004
	-1.500000000000000e+001
	1.500000000000000e+001
	1.505012354503008e-003
	4.860459120341943e-003
	1.423573792186109e-005
	-4.874694858262581e-003
	5.110220280817197e-003
	1.508486092062895e-005
	-5.125305141737425e-003
	1.000000000000000e-002
	4.860459120395133e-003
	5.110220280762398e-003
	-1.423573792223500e-005
	-1.508486092016503e-005
	0.000000000000000e+000
	-1.000000000000000e-002
	-9.970679401156989e-003
30		2.599749998444168e-005
	7.319588361974180e+000
	8.131083312589827e-004
	-7.040875948618097e-001
	7.724393225097610e+000
	-8.131083312589827e-004
	-1.500000000000000e+001
	1.500000000000000e+001
	1.626216662517965e-003
	4.850404516542372e-003
	1.420357337548946e-005
	-4.864608089917033e-003
	5.120274425412031e-003
	1.511748467233361e-005
	-5.135391910082994e-003
	1.000000000000000e-002
	4.850404516601593e-003
	5.120274425350547e-003
	-1.420357337590030e-005
	-1.511748467179070e-005
	0.000000000000000e+000
	-1.000000000000000e-002
	-9.970678941952690e-003
31		2.795062498444168e-005
	7.304539212629166e+000
	8.735880341426215e-004
	-7.040861592329741e-001
	7.739443176791924e+000
	-8.735880341426215e-004
	-1.500000000000000e+001
	1.500000000000000e+001
	1.747176068285243e-003
	4.840371215408326e-003
	1.417143023181477e-005
	-4.854542645639727e-003
	5.130307191646161e-003
	1.515016271573036e-005
	-5.145457354360262e-003
	1.000000000000000e-002
	4.840371215472050e-003
	5.130307191580556e-003
	-1.417143023225677e-005
	-1.515016271515094e-005
	0.000000000000000e+000
	-1.000000000000000e-002
	-9.970678407052288e-003
32		2.990374998444169e-005
	7.289524190668073e+000
	9.339361778816277e-004
	-7.040846241466782e-001
	7.754458991442883e+000
	-9.339361778816277e-004
	-1.500000000000000e+001
	1.500000000000000e+001
	1.867872355763256e-003
	4.830360672304934e-003
	1.413944817152172e-005
	-4.844500120475072e-003
	5.140317206291138e-003
	1.518267323547840e-005
	-5.155499879524971e-003
	1.000000000000000e-002
	4.830360672371411e-003
	5.140317206221284e-003
	-1.413944817195437e-005
	-1.518267323483808e-005
	0.000000000000000e+000
	-1.000000000000000e-002
	-9.970677878594207e-003
33		3.185687498444169e-005
	7.274545951598307e+000
	9.941436742675323e-004
	-7.040829905063077e-001
	7.769438134846519e+000
	-9.941436742675323e-004
	-1.500000000000000e+001
	1.500000000000000e+001
	1.988287348535065e-003
	4.820374576697540e-003
	1.410749809704994e-005
	-4.834482074792933e-003
	5.150302699007905e-003
	1.521522620047704e-005
	-5.165517925207074e-003
	1.000000000000000e-002
	4.820374576768987e-003
	5.150302698934462e-003
	-1.410749809753441e-005
	-1.521522619978314e-005
	0.000000000000000e+000
	-1.000000000000000e-002
	-9.970677275703131e-003
34		3.380999998444169e-005
	7.259606544218762e+000
	1.054201456272840e-003
	-7.040812593269894e-001
	7.784378436721068e+000
	-1.054201456272840e-003
	-1.500000000000000e+001
	1.500000000000000e+001
	2.108402912545680e-003
	4.810414375444918e-003
	1.407571801422692e-005
	-4.824490093457226e-003
	5.160262303931686e-003
	1.524760261282859e-005
	-5.175509906542800e-003
	1.000000000000000e-002
	4.810414375519288e-003
	5.160262303854159e-003
	-1.407571801465785e-005
	-1.524760261214792e-005
	0.000000000000000e+000
	-1.000000000000000e-002
	-9.970676679374790e-003
35		3.576312498444169e-005
	7.244708604197885e+000
	1.114100479416490e-003
	-7.040794316307284e-001
	7.799277380870335e+000
	-1.114100479416490e-003
	-1.500000000000000e+001
	1.500000000000000e+001
	2.228200958832981e-003
	4.800481746008746e-003
	1.404398038022855e-005
	-4.814525726387903e-003
	5.170194263948139e-003
	1.528000966503706e-005
	-5.185474273612068e-003
	1.000000000000000e-002
	4.800481746086443e-003
	5.170194263868077e-003
	-1.404398038072616e-005
	-1.528000966425762e-005
	0.000000000000000e+000
	-1.000000000000000e-002
	-9.970676009955284e-003
36		3.771624998444169e-005
	7.229854167327699e+000
	1.173831723125925e-003
	-7.040775085500225e-001
	7.814132811709290e+000
	-1.173831723125925e-003
	-1.500000000000000e+001
	1.500000000000000e+001
	2.347663446251849e-003
	4.790578125445667e-003
	1.401242154391446e-005
	-4.804590546988103e-003
	5.180097221863779e-003
	1.531223114821031e-005
	-5.195409453011980e-003
	1.000000000000000e-002
	4.790578125527140e-003
	5.180097221781534e-003
	-1.401242154440134e-005
	-1.531223114738549e-005
	0.000000000000000e+000
	-1.000000000000000e-002
	-9.970675347307462e-003
37		3.966937498444169e-005
	7.215045847585282e+000
	1.233386192095548e-003
	-7.040754912229283e-001
	7.828942232925224e+000
	-1.233386192095548e-003
	-1.500000000000000e+001
	1.500000000000000e+001
	2.466772384191097e-003
	4.780705177963480e-003
	1.398091549270552e-005
	-4.794686093455978e-003
	5.189969435029172e-003
	1.534447151568967e-005
	-5.205313906544132e-003
	1.000000000000000e-002
	4.780705178049851e-003
	5.189969434943145e-003
	-1.398091549321829e-005
	-1.534447151483145e-005
	0.000000000000000e+000
	-1.000000000000000e-002
	-9.970674612990189e-003
38		4.162249998444170e-005
	7.200285665829563e+000
	1.292754917641394e-003
	-7.040733808965860e-001
	7.843703505550876e+000
	-1.292754917641394e-003
	-1.500000000000000e+001
	1.500000000000000e+001
	2.585509835282787e-003
	4.770864329542797e-003
	1.394959693585238e-005
	-4.784813926478009e-003
	5.199809556203313e-003
	1.537651731944332e-005
	-5.215186073522066e-003
	1.000000000000000e-002
	4.770864329632749e-003
	5.199809556113624e-003
	-1.394959693637352e-005
	-1.537651731859882e-005
	0.000000000000000e+000
	-1.000000000000000e-002
	-9.970673885744271e-003
39		4.357562498444170e-005
	7.185576212530918e+000
	1.351928959051768e-003
	-7.040711788222545e-001
	7.858414154984489e+000
	-1.351928959051768e-003
	-1.500000000000000e+001
	1.500000000000000e+001
	2.703857918103536e-003
	4.761057229920133e-003
	1.391834136716236e-005
	-4.774975571284865e-003
	5.209615858406325e-003
	1.540857031079141e-005
	-5.225024428715125e-003
	1.000000000000000e-002
	4.761057230010341e-003
	5.209615858312721e-003
	-1.391834136767603e-005
	-1.540857030985079e-005
	0.000000000000000e+000
	-1.000000000000000e-002
	-9.970673088323719e-003
40		4.552874998444170e-005
	7.170919491732868e+000
	1.410899404933695e-003
	-7.040688863587101e-001
	7.873072060740078e+000
	-1.410899404933695e-003
	-1.500000000000000e+001
	1.500000000000000e+001
	2.821798809867391e-003
	4.751285292746211e-003
	1.388728187367712e-005
	-4.765172574618676e-003
	5.219387005608099e-003
	1.544041977458646e-005
	-5.234827425381367e-003
	1.000000000000000e-002
	4.751285292839948e-003
	5.219387005511421e-003
	-1.388728187421221e-005
	-1.544041977357308e-005
	0.000000000000000e+000
	-1.000000000000000e-002
	-9.970672298352414e-003
41		4.748187498444170e-005
	7.156318068626951e+000
	1.469657374554935e-003
	-7.040665048672874e-001
	7.887674771713673e+000
	-1.469657374554935e-003
	-1.500000000000000e+001
	1.500000000000000e+001
	2.939314749109870e-003
	4.741550152094366e-003
	1.385629543189794e-005
	-4.755406447524649e-003
	5.229121287680182e-003
	1.547226479656365e-005
	-5.244593552475365e-003
	1.000000000000000e-002
	4.741550152190885e-003
	5.229121287582033e-003
	-1.385629543242052e-005
	-1.547226479556193e-005
	0.000000000000000e+000
	-1.000000000000000e-002
	-9.970671439772878e-003
42		4.943499998444170e-005
	7.141773928603534e+000
	1.528194019181391e-003
	-7.040640358151189e-001
	7.902220187732150e+000
	-1.528194019181391e-003
	-1.500000000000000e+001
	1.500000000000000e+001
	3.056388038362783e-003
	4.731853208078053e-003
	1.382551352398661e-005
	-4.745678721601886e-003
	5.238817381032610e-003
	1.550389736703477e-005
	-5.254321278398105e-003
	1.000000000000000e-002
	4.731853208178567e-003
	5.238817380930977e-003
	-1.382551352450723e-005
	-1.550389736600962e-005
	0.000000000000000e+000
	-1.000000000000000e-002
	-9.970670589109120e-003
43		5.138812498444170e-005
	7.127289609851067e+000
	1.586500523409699e-003
	-7.040614806702171e-001
	7.916705882939483e+000
	-1.586500523409699e-003
	-1.500000000000000e+001
	1.500000000000000e+001
	3.173001046819397e-003
	4.722196077939229e-003
	1.379481458592627e-005
	-4.735990892523817e-003
	5.248473593534686e-003
	1.553551394266639e-005
	-5.264009107476155e-003
	1.000000000000000e-002
	4.722196078040345e-003
	5.248473593432622e-003
	-1.379481458645694e-005
	-1.553551394153788e-005
	0.000000000000000e+000
	-1.000000000000000e-002
	-9.970669671471758e-003
44		5.334124998444171e-005
	7.112867077311734e+000
	1.644568106494788e-003
	-7.040588410045294e-001
	7.931129779241005e+000
	-1.644568106494788e-003
	-1.500000000000000e+001
	1.500000000000000e+001
	3.289136212989576e-003
	4.712580147067652e-003
	1.376432851205952e-005
	-4.726344475579953e-003
	5.258088615229401e-003
	1.556690919146962e-005
	-5.273655524420096e-003
	1.000000000000000e-002
	4.712580147172663e-003
	5.258088615125511e-003
	-1.376432851262410e-005
	-1.556690919033739e-005
	0.000000000000000e+000
	-1.000000000000000e-002
	-9.970668762295290e-003
45		5.529437498444171e-005
	7.098508840501384e+000
	1.702388023672236e-003
	-7.040561183890901e-001
	7.945489477726665e+000
	-1.702388023672236e-003
	-1.500000000000000e+001
	1.500000000000000e+001
	3.404776047344472e-003
	4.703007014743972e-003
	1.373393517530839e-005
	-4.716740949918573e-003
	5.267660773106447e-003
	1.559827697709446e-005
	-5.283259050081451e-003
	1.000000000000000e-002
	4.703007014848890e-003
	5.267660772999078e-003
	-1.373393517583646e-005
	-1.559827697596644e-005
	0.000000000000000e+000
	-1.000000000000000e-002
	-9.970667787847817e-003
46		5.724749998444171e-005
	7.084216842167474e+000
	1.759951567475194e-003
	-7.040533144968642e-001
	7.959782924106128e+000
	-1.759951567475194e-003
	-1.500000000000000e+001
	1.500000000000000e+001
	3.519903134950389e-003
	4.693478050489743e-003
	1.370376289903358e-005
	-4.707181813386511e-003
	5.277188771997210e-003
	1.562941461851968e-005
	-5.292818186613515e-003
	1.000000000000000e-002
	4.693478050595915e-003
	5.277188771888351e-003
	-1.370376289953333e-005
	-1.562941461731837e-005
	0.000000000000000e+000
	-1.000000000000000e-002
	-9.970666822484193e-003
47		5.920062498444171e-005
	7.069993561527165e+000
	1.817250069045702e-003
	-7.040504309980024e-001
	7.974007748058742e+000
	-1.817250069045702e-003
	-1.500000000000000e+001
	1.500000000000000e+001
	3.634500138091403e-003
	4.683994834520808e-003
	1.367369297072279e-005
	-4.697668527488568e-003
	5.286670959091589e-003
	1.566051342151611e-005
	-5.302331472511365e-003
	1.000000000000000e-002
	4.683994834627505e-003
	5.286670958981890e-003
	-1.367369297120083e-005
	-1.566051342024710e-005
	0.000000000000000e+000
	-1.000000000000000e-002
	-9.970665793610070e-003
48		6.115374998444171e-005
	7.055840917455973e+000
	1.874274899440182e-003
	-7.040474696624415e-001
	7.988161920776045e+000
	-1.874274899440182e-003
	-1.500000000000000e+001
	1.500000000000000e+001
	3.748549798880363e-003
	4.674558719374254e-003
	1.364385215966142e-005
	-4.688202571532854e-003
	5.296106055139289e-003
	1.569137332916970e-005
	-5.311797428467149e-003
	1.000000000000000e-002
	4.674558719482637e-003
	5.296106055029351e-003
	-1.364385216015266e-005
	-1.569137332791385e-005
	0.000000000000000e+000
	-1.000000000000000e-002
	-9.970664774512129e-003
49		6.310687498444172e-005
	7.041761357299090e+000
	1.931017470928931e-003
	-7.040444322553054e-001
	8.002243102105464e+000
	-1.931017470928931e-003
	-1.500000000000000e+001
	1.500000000000000e+001
	3.862034941857862e-003
	4.665171265153200e-003
	1.361412314617478e-005
	-4.678785388298311e-003
	5.305492428577422e-003
	1.572218312483909e-005
	-5.321214611701708e-003
	1.000000000000000e-002
	4.665171265263024e-003