Title: * E:\Temp\raw\ascii\ac\ac.asc
Date: Fri Aug 02 17:54:34 2013
Plotname: AC Analysis
Flags: complex forward log
No. Variables: 23
No. Points:          401
Offset:   0.0000000000000000e+000
Command: Linear Technology Corporation LTspice IV
Variables:
	0	frequency	frequency
	1	V(uc1)	voltage
	2	V(ue1)	voltage
	3	V(ue12)	voltage
	4	V(uc2)	voltage
	5	V(ue2)	voltage
	6	V(vee)	voltage
	7	V(vcc)	voltage
	8	V(ued)	voltage
	9	Ic(Q2)	device_current
	10	Ib(Q2)	device_current
	11	Ie(Q2)	device_current
	12	Ic(Q1)	device_current
	13	Ib(Q1)	device_current
	14	Ie(Q1)	device_current
	15	I(I1)	device_current
	16	I(R2)	device_current
	17	I(R1)	device_current
	18	I(E2)	device_current
	19	I(E1)	device_current
	20	I(V1)	device_current
	21	I(Ve)	device_current
	22	I(Vc)	device_current
Values:
0		1.000000000000000e+004,0.000000000000000e+000
	-1.245034822674097e+002,2.427353550304000e-002
	5.000000000000000e-001,0.000000000000000e+000
	-4.968248035197576e-015,1.128247885742728e-018
	1.245034822673983e+002,-2.427353550303450e-002
	-5.000000000000000e-001,0.000000000000000e+000
	0.000000000000000e+000,0.000000000000000e+000
	0.000000000000000e+000,0.000000000000000e+000
	1.000000000000000e+000,0.000000000000000e+000
	-8.300232151159465e-002,1.618235700202015e-005
	-2.681308723434805e-004,-2.132312826245351e-005
	8.327045238393813e-002,5.140771260433366e-006
	8.300232151159465e-002,-1.618235700202371e-005
	2.681308723434805e-004,2.132312826245707e-005
	-8.327045238393813e-002,-5.140771260433366e-006
	0.000000000000000e+000,0.000000000000000e+000
	-8.300232151159889e-002,1.618235700202299e-005
	8.300232151160644e-002,-1.618235700202666e-005
	2.681308723151238e-004,2.132312826246106e-005
	-2.681308723151291e-004,-2.132312826246326e-005
	0.000000000000000e+000,0.000000000000000e+000
	0.000000000000000e+000,0.000000000000000e+000
	-7.549516567451065e-015,3.669346727505629e-018
1		1.023292992280754e+004,0.000000000000000e+000
	-1.245034820452674e+002,2.483893873399730e-002
	5.000000000000000e-001,0.000000000000000e+000
	-3.885780586188048e-016,-8.385626177817573e-019
	1.245034820452798e+002,-2.483893873400168e-002
	-5.000000000000000e-001,0.000000000000000e+000
	0.000000000000000e+000,0.000000000000000e+000
	0.000000000000000e+000,0.000000000000000e+000
	1.000000000000000e+000,0.000000000000000e+000
	-8.300232136350842e-002,1.655929248933088e-005
	-2.681310341006854e-004,-2.181980769233426e-005
	8.327045239760911e-002,5.260515203003386e-006
	8.300232136349384e-002,-1.655929248933088e-005
	2.681310341152710e-004,2.181980769233426e-005
	-8.327045239760911e-002,-5.260515203003387e-006
	0.000000000000000e+000,0.000000000000000e+000
	-8.300232136351986e-002,1.655929248933445e-005
	8.300232136351156e-002,-1.655929248933153e-005
	2.681310340809946e-004,2.181980769233948e-005
	-2.681310340809950e-004,-2.181980769233822e-005
	0.000000000000000e+000,0.000000000000000e+000
	0.000000000000000e+000,0.000000000000000e+000
	8.298917109073045e-015,-2.920569602132828e-018
2		1.047128548050900e+004,0.000000000000000e+000
	-1.245034818126577e+002,2.541751189489307e-002
	5.000000000000000e-001,0.000000000000000e+000
	-3.282096816548119e-015,4.277516383634217e-019
	1.245034818126551e+002,-2.541751189489108e-002
	-5.000000000000000e-001,0.000000000000000e+000
	0.000000000000000e+000,0.000000000000000e+000
	0.000000000000000e+000,0.000000000000000e+000
	1.000000000000000e+000,0.000000000000000e+000
	-8.300232120842392e-002,1.694500792992586e-005
	-2.681312035017203e-004,-2.232805627003445e-005
	8.327045241192564e-002,5.383048340108595e-006
	8.300232120842392e-002,-1.694500792992586e-005
	2.681312035017203e-004,2.232805627003445e-005
	-8.327045241192564e-002,-5.383048340108596e-006
	0.000000000000000e+000,0.000000000000000e+000
	-8.300232120843674e-002,1.694500792992739e-005
	8.300232120843844e-002,-1.694500792992871e-005
	2.681312034706512e-004,2.232805627003970e-005
	-2.681312034706546e-004,-2.232805627004068e-005
	0.000000000000000e+000,0.000000000000000e+000
	0.000000000000000e+000,0.000000000000000e+000
	-1.693090112553364e-015,1.324759529505726e-018
3		1.071519305237606e+004,0.000000000000000e+000
	-1.245034815690851e+002,2.600956175257657e-002
	5.000000000000000e-001,0.000000000000000e+000
	-5.263151026113633e-015,1.341700188450812e-018
	1.245034815690723e+002,-2.600956175257000e-002
	-5.000000000000000e-001,0.000000000000000e+000
	0.000000000000000e+000,0.000000000000000e+000
	0.000000000000000e+000,0.000000000000000e+000
	1.000000000000000e+000,0.000000000000000e+000
	-8.300232104603497e-002,1.733970783504532e-005
	-2.681313808817476e-004,-2.284814347546771e-005
	8.327045242691672e-002,5.508435640422397e-006
	8.300232104604956e-002,-1.733970783504887e-005
	2.681313808671482e-004,2.284814347547127e-005
	-8.327045242691671e-002,-5.508435640422398e-006
	0.000000000000000e+000,0.000000000000000e+000
	-8.300232104604821e-002,1.733970783504667e-005
	8.300232104605676e-002,-1.733970783505105e-005
	2.681313808433962e-004,2.284814347547432e-005
	-2.681313808434018e-004,-2.284814347547690e-005
	0.000000000000000e+000,0.000000000000000e+000
	0.000000000000000e+000,0.000000000000000e+000
	-8.548717289613705e-015,4.380854403199241e-018
4		1.096478196143185e+004,0.000000000000000e+000
	-1.245034813140331e+002,2.661540221940008e-002
	5.000000000000000e-001,0.000000000000000e+000
	-5.922345946984819e-015,1.677125235563515e-018
	1.245034813140168e+002,-2.661540221939182e-002
	-5.000000000000000e-001,0.000000000000000e+000
	0.000000000000000e+000,0.000000000000000e+000
	0.000000000000000e+000,0.000000000000000e+000
	1.000000000000000e+000,0.000000000000000e+000
	-8.300232087600626e-002,1.774360147959369e-005
	-2.681315666078071e-004,-2.338034506552522e-005
	8.327045244261407e-002,5.636743585931521e-006
	8.300232087600626e-002,-1.774360147959725e-005
	2.681315666078071e-004,2.338034506552877e-005
	-8.327045244261407e-002,-5.636743585931520e-006
	0.000000000000000e+000,0.000000000000000e+000
	-8.300232087601121e-002,1.774360147959455e-005
	8.300232087602207e-002,-1.774360147960005e-005
	2.681315665754612e-004,2.338034506553192e-005
	-2.681315665754675e-004,-2.338034506553511e-005
	0.000000000000000e+000,0.000000000000000e+000
	0.000000000000000e+000,0.000000000000000e+000
	-1.085243006571091e-014,5.505714157152952e-018
5		1.122018454301963e+004,0.000000000000000e+000
	-1.245034810469603e+002,2.723535451965650e-002
	5.000000000000000e-001,0.000000000000000e+000
	-4.798245134551848e-015,1.184999093208766e-018
	1.245034810469499e+002,-2.723535451965073e-002
	-5.000000000000000e-001,0.000000000000000e+000
	0.000000000000000e+000,0.000000000000000e+000
	0.000000000000000e+000,0.000000000000000e+000
	1.000000000000000e+000,0.000000000000000e+000
	-8.300232069795870e-002,1.815690301309645e-005
	-2.681317610922357e-004,-2.392494322028249e-005
	8.327045245905093e-002,5.768040207186033e-006
	8.300232069795870e-002,-1.815690301310357e-005
	2.681317610922079e-004,2.392494322028960e-005
	-8.327045245905090e-002,-5.768040207186033e-006
	0.000000000000000e+000,0.000000000000000e+000
	-8.300232069796659e-002,1.815690301310049e-005
	8.300232069797355e-002,-1.815690301310433e-005
	2.681317610608089e-004,2.392494322029166e-005
	-2.681317610608140e-004,-2.392494322029398e-005
	0.000000000000000e+000,0.000000000000000e+000
	0.000000000000000e+000,0.000000000000000e+000
	-6.952771691715043e-015,3.842141448745506e-018
6		1.148153621496882e+004,0.000000000000000e+000
	-1.245034807673003e+002,2.786974735989519e-002
	5.000000000000000e-001,0.000000000000000e+000
	-1.460637166772472e-015,-4.192813088908787e-019
	1.245034807673072e+002,-2.786974735989748e-002
	-5.000000000000000e-001,0.000000000000000e+000
	0.000000000000000e+000,0.000000000000000e+000
	0.000000000000000e+000,0.000000000000000e+000
	1.000000000000000e+000,0.000000000000000e+000
	-8.300232051152780e-002,1.857983157326243e-005
	-2.681319647342556e-004,-2.448222669263238e-005
	8.327045247626205e-002,5.902395119369944e-006
	8.300232051152780e-002,-1.857983157326243e-005
	2.681319647342417e-004,2.448222669263238e-005
	-8.327045247626204e-002,-5.902395119369943e-006
	0.000000000000000e+000,0.000000000000000e+000
	-8.300232051153812e-002,1.857983157326499e-005
	8.300232051153351e-002,-1.857983157326346e-005
	2.681319647119689e-004,2.448222669263760e-005
	-2.681319647119704e-004,-2.448222669263710e-005
	0.000000000000000e+000,0.000000000000000e+000
	0.000000000000000e+000,0.000000000000000e+000
	4.607425552194400e-015,-1.528047436846758e-018
7		1.174897554939529e+004,0.000000000000000e+000
	-1.245034804744616e+002,2.851891710320619e-002
	5.000000000000000e-001,0.000000000000000e+000
	-3.382710778154774e-015,5.378659215064807e-019
	1.245034804744585e+002,-2.851891710320369e-002
	-5.000000000000000e-001,0.000000000000000e+000
	0.000000000000000e+000,0.000000000000000e+000
	0.000000000000000e+000,0.000000000000000e+000
	1.000000000000000e+000,0.000000000000000e+000
	-8.300232031629075e-002,1.901261140213399e-005
	-2.681321779944568e-004,-2.505249096134541e-005
	8.327045249428521e-002,6.039879559211418e-006
	8.300232031629075e-002,-1.901261140213399e-005
	2.681321779944429e-004,2.505249096134541e-005
	-8.327045249428519e-002,-6.039879559211417e-006
	0.000000000000000e+000,0.000000000000000e+000
	-8.300232031630568e-002,1.901261140213579e-005
	8.300232031630775e-002,-1.901261140213746e-005
	2.681321779609085e-004,2.505249096135148e-005
	-2.681321779609121e-004,-2.505249096135267e-005
	0.000000000000000e+000,0.000000000000000e+000
	0.000000000000000e+000,0.000000000000000e+000
	-2.067790383364354e-015,1.670348971985480e-018
8		1.202264434617413e+004,0.000000000000000e+000
	-1.245034801678211e+002,2.918320794755825e-002
	5.000000000000000e-001,0.000000000000000e+000
	-2.102484852883890e-015,-1.058791184067875e-019
	1.245034801678247e+002,-2.918320794755898e-002
	-5.000000000000000e-001,0.000000000000000e+000
	0.000000000000000e+000,0.000000000000000e+000
	0.000000000000000e+000,0.000000000000000e+000
	1.000000000000000e+000,0.000000000000000e+000
	-8.300232011186846e-002,1.945547196503843e-005
	-2.681324012887704e-004,-2.563603838779343e-005
	8.327045251315723e-002,6.180566422754998e-006
	8.300232011186846e-002,-1.945547196503488e-005
	2.681324012887704e-004,2.563603838778988e-005
	-8.327045251315723e-002,-6.180566422754999e-006
	0.000000000000000e+000,0.000000000000000e+000
	-8.300232011188310e-002,1.945547196503932e-005
	8.300232011188073e-002,-1.945547196503883e-005
	2.681324012599617e-004,2.563603838779764e-005
	-2.681324012599640e-004,-2.563603838779771e-005
	0.000000000000000e+000,0.000000000000000e+000
	0.000000000000000e+000,0.000000000000000e+000
	2.373101715136272e-015,-4.811147140404426e-019
9		1.230268770812381e+004,0.000000000000000e+000
	-1.245034798467301e+002,2.986297210830083e-002
	5.000000000000000e-001,0.000000000000000e+000
	-5.072331443756184e-015,1.439956010332311e-018
	1.245034798467183e+002,-2.986297210829380e-002
	-5.000000000000000e-001,0.000000000000000e+000
	0.000000000000000e+000,0.000000000000000e+000
	0.000000000000000e+000,0.000000000000000e+000
	1.000000000000000e+000,0.000000000000000e+000
	-8.300231989779441e-002,1.990864807219486e-005
	-2.681326351249708e-004,-2.623317837620455e-005
	8.327045253291938e-002,6.324530304009682e-006
	8.300231989780900e-002,-1.990864807219842e-005
	2.681326351103852e-004,2.623317837620810e-005
	-8.327045253291938e-002,-6.324530304009682e-006
	0.000000000000000e+000,0.000000000000000e+000
	-8.300231989781218e-002,1.990864807219587e-005
	8.300231989782006e-002,-1.990864807220055e-005
	2.681326350827716e-004,2.623317837621141e-005
	-2.681326350827770e-004,-2.623317837621420e-005
	0.000000000000000e+000,0.000000000000000e+000
	0.000000000000000e+000,0.000000000000000e+000
	-7.882583474838611e-015,4.685786264210790e-018
10		1.258925411794167e+004,0.000000000000000e+000
	-1.245034795105055e+002,3.055857000490539e-002
	5.000000000000000e-001,0.000000000000000e+000
	-3.740063814205996e-015,7.564004218980902e-019
	1.245034795105005e+002,-3.055857000490179e-002
	-5.000000000000000e-001,0.000000000000000e+000
	0.000000000000000e+000,0.000000000000000e+000
	0.000000000000000e+000,0.000000000000000e+000
	1.000000000000000e+000,0.000000000000000e+000
	-8.300231967366036e-002,2.037238000326472e-005
	-2.681328799518240e-004,-2.684422753776653e-005
	8.327045255361218e-002,6.471847534501817e-006
	8.300231967366036e-002,-2.037238000326827e-005
	2.681328799518101e-004,2.684422753777009e-005
	-8.327045255361217e-002,-6.471847534501818e-006
	0.000000000000000e+000,0.000000000000000e+000
	-8.300231967366702e-002,2.037238000326786e-005
	8.300231967367031e-002,-2.037238000327026e-005
	2.681328799253121e-004,2.684422753777453e-005
	-2.681328799253161e-004,-2.684422753777614e-005
	0.000000000000000e+000,0.000000000000000e+000
	0.000000000000000e+000,0.000000000000000e+000
	-3.289035710452026e-015,2.405573570202213e-018
11		1.288249551693133e+004,0.000000000000000e+000
	-1.245034791584358e+002,3.127037045206824e-002
	5.000000000000000e-001,0.000000000000000e+000
	-5.523359547510154e-015,1.756746332605419e-018
	1.245034791584217e+002,-3.127037045205963e-002
	-5.000000000000000e-001,0.000000000000000e+000
	0.000000000000000e+000,0.000000000000000e+000
	0.000000000000000e+000,0.000000000000000e+000
	1.000000000000000e+000,0.000000000000000e+000
	-8.300231943894142e-002,2.084691363470365e-005
	-2.681331363392492e-004,-2.746950985844825e-005
	8.327045257528067e-002,6.622596223744596e-006
	8.300231943894142e-002,-2.084691363471077e-005
	2.681331363392769e-004,2.746950985845537e-005
	-8.327045257528069e-002,-6.622596223744596e-006
	0.000000000000000e+000,0.000000000000000e+000
	-8.300231943894777e-002,2.084691363470642e-005
	8.300231943895722e-002,-2.084691363471216e-005
	2.681331363069229e-004,2.746950985845754e-005
	-2.681331363069289e-004,-2.746950985846090e-005
	0.000000000000000e+000,0.000000000000000e+000
	0.000000000000000e+000,0.000000000000000e+000
	-9.450773497121645e-015,5.739495250595139e-018
12		1.318256738556407e+004,0.000000000000000e+000
	-1.245034787897723e+002,3.199875085525226e-002
	5.000000000000000e-001,0.000000000000000e+000
	-1.821459649775647e-015,-2.795208725939191e-019
	1.245034787897773e+002,-3.199875085525388e-002
	-5.000000000000000e-001,0.000000000000000e+000
	0.000000000000000e+000,0.000000000000000e+000
	0.000000000000000e+000,0.000000000000000e+000
	1.000000000000000e+000,0.000000000000000e+000
	-8.300231919317105e-002,2.133250057016392e-005
	-2.681334047984346e-004,-2.810935687081893e-005
	8.327045259796949e-002,6.776856300655006e-006
	8.300231919317105e-002,-2.133250057016392e-005
	2.681334047984207e-004,2.810935687081893e-005
	-8.327045259796947e-002,-6.776856300655007e-006
	0.000000000000000e+000,0.000000000000000e+000
	-8.300231919318489e-002,2.133250057016925e-005
	8.300231919318152e-002,-2.133250057016818e-005
	2.681334047714283e-004,2.810935687082764e-005
	-2.681334047714302e-004,-2.810935687082743e-005
	0.000000000000000e+000,0.000000000000000e+000
	0.000000000000000e+000,0.000000000000000e+000
	3.372302437298913e-015,-1.077425908907470e-018
13		1.348962882591653e+004,0.000000000000000e+000
	-1.245034784037347e+002,3.274409741079610e-002
	5.000000000000000e-001,0.000000000000000e+000
	1.040834085586084e-017,-1.334923924872777e-018
	1.245034784037492e+002,-3.274409741080302e-002
	-5.000000000000000e-001,0.000000000000000e+000
	0.000000000000000e+000,0.000000000000000e+000
	0.000000000000000e+000,0.000000000000000e+000
	1.000000000000000e+000,0.000000000000000e+000
	-8.300231893582438e-002,2.182939827386535e-005
	-2.681336859035460e-004,-2.876410782979593e-005
	8.327045262172793e-002,6.934709555930583e-006
	8.300231893580980e-002,-2.182939827385823e-005
	2.681336859181316e-004,2.876410782978881e-005
	-8.327045262172793e-002,-6.934709555930583e-006
	0.000000000000000e+000,0.000000000000000e+000
	-8.300231893583281e-002,2.182939827386868e-005
	8.300231893582311e-002,-2.182939827386406e-005
	2.681336858882732e-004,2.876410782980106e-005
	-2.681336858882732e-004,-2.876410782979899e-005
	0.000000000000000e+000,0.000000000000000e+000
	0.000000000000000e+000,0.000000000000000e+000
	9.700573677662305e-015,-4.618023628430445e-018
14		1.380384264602884e+004,0.000000000000000e+000
	-1.245034779995040e+002,3.350680531067284e-002
	5.000000000000000e-001,0.000000000000000e+000
	6.279698983036042e-016,-1.729641278293281e-018
	1.245034779995218e+002,-3.350680531068175e-002
	-5.000000000000000e-001,0.000000000000000e+000
	0.000000000000000e+000,0.000000000000000e+000
	0.000000000000000e+000,0.000000000000000e+000
	1.000000000000000e+000,0.000000000000000e+000
	-8.300231866633280e-002,2.233787020711649e-005
	-2.681339802734911e-004,-2.943410989253407e-005
	8.327045264660629e-002,7.096239685417586e-006
	8.300231866631823e-002,-2.233787020710937e-005
	2.681339802880628e-004,2.943410989252695e-005
	-8.327045264660629e-002,-7.096239685417585e-006
	0.000000000000000e+000,0.000000000000000e+000
	-8.300231866634784e-002,2.233787020712117e-005
	8.300231866633599e-002,-2.233787020711522e-005
	2.681339802537443e-004,2.943410989254001e-005
	-2.681339802537436e-004,-2.943410989253726e-005
	0.000000000000000e+000,0.000000000000000e+000
	0.000000000000000e+000,0.000000000000000e+000
	1.185163078787355e-014,-5.946171289725188e-018
15		1.412537544622754e+004,0.000000000000000e+000
	-1.245034775762226e+002,3.428727895202466e-002
	5.000000000000000e-001,0.000000000000000e+000
	7.389922007661198e-016,-1.834673363752815e-018
	1.245034775762410e+002,-3.428727895203410e-002
	-5.000000000000000e-001,0.000000000000000e+000
	0.000000000000000e+000,0.000000000000000e+000
	0.000000000000000e+000,0.000000000000000e+000
	1.000000000000000e+000,0.000000000000000e+000
	-8.300231838415687e-002,2.285818596802154e-005
	-2.681342885003241e-004,-3.011971830250841e-005
	8.327045267265719e-002,7.261532334486861e-006
	8.300231838414229e-002,-2.285818596801443e-005
	2.681342885148957e-004,3.011971830250129e-005
	-8.327045267265719e-002,-7.261532334486861e-006
	0.000000000000000e+000,0.000000000000000e+000
	-8.300231838416064e-002,2.285818596802273e-005
	8.300231838414841e-002,-2.285818596801644e-005
	2.681342884922302e-004,3.011971830251079e-005
	-2.681342884922295e-004,-3.011971830250785e-005
	0.000000000000000e+000,0.000000000000000e+000
	0.000000000000000e+000,0.000000000000000e+000
	1.222633105868454e-014,-6.295148863993960e-018
16		1.445439770745927e+004,0.000000000000000e+000
	-1.245034771329926e+002,3.508593215157619e-002
	5.000000000000000e-001,0.000000000000000e+000
	1.075528555105620e-015,-2.082006984351070e-018
	1.245034771330126e+002,-3.508593215158688e-002
	-5.000000000000000e-001,0.000000000000000e+000
	0.000000000000000e+000,0.000000000000000e+000
	0.000000000000000e+000,0.000000000000000e+000
	1.000000000000000e+000,0.000000000000000e+000
	-8.300231808866965e-002,2.339062143438726e-005
	-2.681346112661937e-004,-3.082129657783120e-005
	8.327045269993584e-002,7.430675143443947e-006
	8.300231808865508e-002,-2.339062143438014e-005
	2.681346112807514e-004,3.082129657782409e-005
	-8.327045269993583e-002,-7.430675143443948e-006
	0.000000000000000e+000,0.000000000000000e+000
	-8.300231808867509e-002,2.339062143439126e-005
	8.300231808866171e-002,-2.339062143438413e-005
	2.681346112575464e-004,3.082129657783610e-005
	-2.681346112575452e-004,-3.082129657783274e-005
	0.000000000000000e+000,0.000000000000000e+000
	0.000000000000000e+000,0.000000000000000e+000
	1.337818744673314e-014,-7.128629284092192e-018
17		1.479108388168207e+004,0.000000000000000e+000
	-1.245034766688755e+002,3.590318836504408e-002
	5.000000000000000e-001,0.000000000000000e+000
	-5.613565168260948e-015,2.071842588984019e-018
	1.245034766688609e+002,-3.590318836503390e-002
	-5.000000000000000e-001,0.000000000000000e+000
	0.000000000000000e+000,0.000000000000000e+000
	0.000000000000000e+000,0.000000000000000e+000
	1.000000000000000e+000,0.000000000000000e+000
	-8.300231777922965e-002,2.393545891001846e-005
	-2.681349492715951e-004,-3.153921670401466e-005
	8.327045272850124e-002,7.603757793996199e-006
	8.300231777924422e-002,-2.393545891002558e-005
	2.681349492570234e-004,3.153921670402178e-005
	-8.327045272850124e-002,-7.603757793996199e-006
	0.000000000000000e+000,0.000000000000000e+000
	-8.300231777924057e-002,2.393545891002260e-005
	8.300231777925034e-002,-2.393545891002939e-005
	2.681349492343170e-004,3.153921670402639e-005
	-2.681349492343231e-004,-3.153921670403035e-005
	0.000000000000000e+000,0.000000000000000e+000
	0.000000000000000e+000,0.000000000000000e+000
	-9.769962616701378e-015,6.786427973401454e-018
18		1.513561248436208e+004,0.000000000000000e+000
	-1.245034761828828e+002,3.673948091164766e-002
	5.000000000000000e-001,0.000000000000000e+000
	-2.536165721878092e-015,1.423015351387225e-019
	1.245034761828841e+002,-3.673948091164720e-002
	-5.000000000000000e-001,0.000000000000000e+000
	0.000000000000000e+000,0.000000000000000e+000
	0.000000000000000e+000,0.000000000000000e+000
	1.000000000000000e+000,0.000000000000000e+000
	-8.300231745523906e-002,2.449298727443075e-005
	-2.681353031721151e-004,-3.227385933123656e-005
	8.327045275841118e-002,7.780872056805816e-006
	8.300231745523906e-002,-2.449298727443075e-005
	2.681353031721290e-004,3.227385933123656e-005
	-8.327045275841119e-002,-7.780872056805814e-006
	0.000000000000000e+000,0.000000000000000e+000
	-8.300231745525609e-002,2.449298727443147e-005
	8.300231745525519e-002,-2.449298727443177e-005
	2.681353031394449e-004,3.227385933124190e-005
	-2.681353031394476e-004,-3.227385933124247e-005
	0.000000000000000e+000,0.000000000000000e+000
	0.000000000000000e+000,0.000000000000000e+000
	9.020562075079397e-016,3.049318610115481e-019
19		1.548816618912481e+004,0.000000000000000e+000
	-1.245034756739873e+002,3.759525320386937e-002
	5.000000000000000e-001,0.000000000000000e+000
	-4.815592369311617e-015,1.646632049462360e-018
	1.245034756739768e+002,-3.759525320386134e-002
	-5.000000000000000e-001,0.000000000000000e+000
	0.000000000000000e+000,0.000000000000000e+000
	0.000000000000000e+000,0.000000000000000e+000
	1.000000000000000e+000,0.000000000000000e+000
	-8.300231711596894e-002,2.506350213590195e-005
	-2.681356737627427e-004,-3.302561397604460e-005
	8.327045278973168e-002,7.962111840142649e-006
	8.300231711598352e-002,-2.506350213590907e-005
	2.681356737481433e-004,3.302561397605172e-005
	-8.327045278973166e-002,-7.962111840142647e-006
	0.000000000000000e+000,0.000000000000000e+000
	-8.300231711598451e-002,2.506350213590756e-005
	8.300231711599151e-002,-2.506350213591291e-005
	2.681356737236016e-004,3.302561397605732e-005
	-2.681356737236068e-004,-3.302561397606055e-005
	0.000000000000000e+000,0.000000000000000e+000
	0.000000000000000e+000,0.000000000000000e+000
	-7.008282842946301e-015,5.353248226647178e-018
20		1.584893192461113e+004,0.000000000000000e+000
	-1.245034751411074e+002,3.847095898254082e-002
	5.000000000000000e-001,0.000000000000000e+000
	-3.611694276983712e-015,8.707498697774208e-019
	1.245034751411032e+002,-3.847095898253670e-002
	-5.000000000000000e-001,0.000000000000000e+000
	0.000000000000000e+000,0.000000000000000e+000
	0.000000000000000e+000,0.000000000000000e+000
	1.000000000000000e+000,0.000000000000000e+000
	-8.300231676071944e-002,2.564730598835365e-005
	-2.681360618082274e-004,-3.379487922803400e-005
	8.327045282252767e-002,8.147573239680355e-006
	8.300231676073402e-002,-2.564730598836077e-005
	2.681360617936557e-004,3.379487922804113e-005
	-8.327045282252768e-002,-8.147573239680359e-006
	0.000000000000000e+000,0.000000000000000e+000
	-8.300231676073543e-002,2.564730598835780e-005
	8.300231676073827e-002,-2.564730598836055e-005
	2.681360617728503e-004,3.379487922804415e-005
	-2.681360617728542e-004,-3.379487922804602e-005
	0.000000000000000e+000,0.000000000000000e+000
	0.000000000000000e+000,0.000000000000000e+000
	-2.844946500601964e-015,2.747774880892950e-018
21		1.621810097358929e+004,0.000000000000000e+000
	-1.245034745831146e+002,3.936706255742688e-002
	5.000000000000000e-001,0.000000000000000e+000
	-5.984795992119985e-015,2.527546314606832e-018
	1.245034745830980e+002,-3.936706255741444e-002
	-5.000000000000000e-001,0.000000000000000e+000
	0.000000000000000e+000,0.000000000000000e+000
	0.000000000000000e+000,0.000000000000000e+000
	1.000000000000000e+000,0.000000000000000e+000
	-8.300231638871784e-002,2.624470837160709e-005
	-2.681364681520332e-004,-3.458206296105075e-005
	8.327045285686988e-002,8.337354589443657e-006
	8.300231638873243e-002,-2.624470837161421e-005
	2.681364681374615e-004,3.458206296105786e-005
	-8.327045285686989e-002,-8.337354589443657e-006
	0.000000000000000e+000,0.000000000000000e+000
	-8.300231638873200e-002,2.624470837160963e-005
	8.300231638874304e-002,-2.624470837161792e-005
	2.681364681102912e-004,3.458206296106201e-005
	-2.681364681102976e-004,-3.458206296106680e-005
	0.000000000000000e+000,0.000000000000000e+000
	0.000000000000000e+000,0.000000000000000e+000
	-1.104671909502031e-014,8.294146619514109e-018
22		1.659586907437560e+004,0.000000000000000e+000
	-1.245034739988230e+002,4.028403905339619e-002
	5.000000000000000e-001,0.000000000000000e+000
	-2.987193825632062e-015,4.692562527788824e-019
	1.245034739988220e+002,-4.028403905339410e-002
	-5.000000000000000e-001,0.000000000000000e+000
	0.000000000000000e+000,0.000000000000000e+000
	0.000000000000000e+000,0.000000000000000e+000
	1.000000000000000e+000,0.000000000000000e+000
	-8.300231599920600e-002,2.685602603559015e-005
	-2.681368936236911e-004,-3.538758254953921e-005
	8.327045289282969e-002,8.531556513949060e-006
	8.300231599920600e-002,-2.685602603559726e-005
	2.681368936237050e-004,3.538758254954633e-005
	-8.327045289282971e-002,-8.531556513949060e-006
	0.000000000000000e+000,0.000000000000000e+000
	-8.300231599921465e-002,2.685602603559606e-005
	8.300231599921532e-002,-2.685602603559746e-005
	2.681368935978246e-004,3.538758254955070e-005
	-2.681368935978279e-004,-3.538758254955187e-005
	0.000000000000000e+000,0.000000000000000e+000
	0.000000000000000e+000,0.000000000000000e+000
	-6.661338147750939e-016,1.399298428864104e-018
23		1.698243652461744e+004,0.000000000000000e+000
	-1.245034733869950e+002,4.122237466234137e-002
	5.000000000000000e-001,0.000000000000000e+000
	-1.599415044850616e-015,-5.166900978251232e-019
	1.245034733870012e+002,-4.122237466234423e-002
	-5.000000000000000e-001,0.000000000000000e+000
	0.000000000000000e+000,0.000000000000000e+000
	0.000000000000000e+000,0.000000000000000e+000
	1.000000000000000e+000,0.000000000000000e+000
	-8.300231559132371e-002,2.748158310822481e-005
	-2.681373391608261e-004,-3.621186508977870e-005
	8.327045293048453e-002,8.730281981553897e-006
	8.300231559132371e-002,-2.748158310822481e-005
	2.681373391608122e-004,3.621186508977870e-005
	-8.327045293048452e-002,-8.730281981553897e-006
	0.000000000000000e+000,0.000000000000000e+000
	-8.300231559133411e-002,2.748158310822949e-005
	8.300231559132999e-002,-2.748158310822758e-005
	2.681373391379626e-004,3.621186508978751e-005
	-2.681373391379644e-004,-3.621186508978695e-005
	0.000000000000000e+000,0.000000000000000e+000
	0.000000000000000e+000,0.000000000000000e+000
	4.121702978920894e-015,-1.910906329005702e-018
24		1.737800828749374e+004,0.000000000000000e+000
	-1.245034727463327e+002,4.218256690095267e-002
	5.000000000000000e-001,0.000000000000000e+000
	-7.806255641895632e-016,-1.138412281109780e-018
	1.245034727463431e+002,-4.218256690095867e-002
	-5.000000000000000e-001,0.000000000000000e+000
	0.000000000000000e+000,0.000000000000000e+000
	0.000000000000000e+000,0.000000000000000e+000
	1.000000000000000e+000,0.000000000000000e+000
	-8.300231516422534e-002,2.812171126730130e-005
	-2.681378056887535e-004,-3.705534762635480e-005
	8.327045296991409e-002,8.933636359053496e-006
	8.300231516421076e-002,-2.812171126730130e-005
	2.681378057033113e-004,3.705534762635480e-005
	-8.327045296991407e-002,-8.933636359053499e-006
	0.000000000000000e+000,0.000000000000000e+000
	-8.300231516422875e-002,2.812171126730578e-005
	8.300231516422178e-002,-2.812171126730178e-005
	2.681378056757554e-004,3.705534762636253e-005
	-2.681378056757563e-004,-3.705534762636089e-005
	0.000000000000000e+000,0.000000000000000e+000
	0.000000000000000e+000,0.000000000000000e+000
	6.966649479522857e-015,-4.001383642829315e-018
25		1.778279410038922e+004,0.000000000000000e+000
	-1.245034720754767e+002,4.316512487450388e-002
	5.000000000000000e-001,0.000000000000000e+000
	5.967448757360216e-016,-2.203979728755690e-018
	1.245034720754943e+002,-4.316512487451524e-002
	-5.000000000000000e-001,0.000000000000000e+000
	0.000000000000000e+000,0.000000000000000e+000
	0.000000000000000e+000,0.000000000000000e+000
	1.000000000000000e+000,0.000000000000000e+000
	-8.300231471699238e-002,2.877674991633888e-005
	-2.681382942094079e-004,-3.791847738388578e-005
	8.327045301120178e-002,9.141727467546905e-006
	8.300231471697780e-002,-2.877674991633177e-005
	2.681382942239935e-004,3.791847738387867e-005
	-8.327045301120180e-002,-9.141727467546905e-006
	0.000000000000000e+000,0.000000000000000e+000
	-8.300231471699619e-002,2.877674991634349e-005
	8.300231471698447e-002,-2.877674991633592e-005
	2.681382942007921e-004,3.791847738389206e-005
	-2.681382942007915e-004,-3.791847738388856e-005
	0.000000000000000e+000,0.000000000000000e+000
	0.000000000000000e+000,0.000000000000000e+000
	1.172673069760322e-014,-7.572474548453445e-018