Title: * E:\Temp\raw\ascii\ac\ac_stepped.asc
Date: Fri Aug 02 17:55:16 2013
Plotname: AC Analysis
Flags: complex forward log stepped
No. Variables: 23
No. Points:         1203
Offset:   0.0000000000000000e+000
Command: Linear Technology Corporation LTspice IV
Variables:
	0	frequency	frequency
	1	V(uc1)	voltage
	2	V(ue1)	voltage
	3	V(ue12)	voltage
	4	V(uc2)	voltage
	5	V(ue2)	voltage
	6	V(vee)	voltage
	7	V(vcc)	voltage
	8	V(ued)	voltage
	9	Ic(Q2)	device_current
	10	Ib(Q2)	device_current
	11	Ie(Q2)	device_current
	12	Ic(Q1)	device_current
	13	Ib(Q1)	device_current
	14	Ie(Q1)	device_current
	15	I(I1)	device_current
	16	I(R2)	device_current
	17	I(R1)	device_current
	18	I(E2)	device_current
	19	I(E1)	device_current
	20	I(V1)	device_current
	21	I(Ve)	device_current
	22	I(Vc)	device_current
Values:
0		1.000000000000000e+004,0.000000000000000e+000
	-6.717225719334502e+001,1.227918434150642e-002
	5.000000000000000e-001,0.000000000000000e+000
	4.574465806150840e-015,-6.865202037496104e-019
	6.717225719335254e+001,-1.227918434150959e-002
	-5.000000000000000e-001,0.000000000000000e+000
	0.000000000000000e+000,0.000000000000000e+000
	0.000000000000000e+000,0.000000000000000e+000
	1.000000000000000e+000,0.000000000000000e+000
	-4.478150479556145e-002,8.186122894338414e-006
	-1.280042652258978e-004,-1.100056596850727e-005
	4.490950906078735e-002,2.814443074168852e-006
	4.478150479556145e-002,-8.186122894336635e-006
	1.280042652259048e-004,1.100056596850549e-005
	-4.490950906078736e-002,-2.814443074168852e-006
	0.000000000000000e+000,0.000000000000000e+000
	-4.478150479556835e-002,8.186122894339727e-006
	4.478150479556334e-002,-8.186122894337614e-006
	1.280042652198553e-004,1.100056596850842e-005
	-1.280042652198530e-004,-1.100056596850723e-005
	0.000000000000000e+000,0.000000000000000e+000
	0.000000000000000e+000,0.000000000000000e+000
	5.009881398621019e-015,-2.112500170452225e-018
1		1.023292992280754e+004,0.000000000000000e+000
	-6.717225708833888e+001,1.256520326808971e-002
	5.000000000000000e-001,0.000000000000000e+000
	4.999473057765158e-015,-8.741380015664380e-019
	6.717225708834877e+001,-1.256520326809387e-002
	-5.000000000000000e-001,0.000000000000000e+000
	0.000000000000000e+000,0.000000000000000e+000
	0.000000000000000e+000,0.000000000000000e+000
	1.000000000000000e+000,0.000000000000000e+000
	-4.478150472556421e-002,8.376802178728742e-006
	-1.280043382581378e-004,-1.125680205313530e-005
	4.490950906382235e-002,2.879999874406562e-006
	4.478150472554963e-002,-8.376802178725183e-006
	1.280043382727233e-004,1.125680205313175e-005
	-4.490950906382235e-002,-2.879999874406563e-006
	0.000000000000000e+000,0.000000000000000e+000
	-4.478150472556584e-002,8.376802178729247e-006
	4.478150472555925e-002,-8.376802178726476e-006
	1.280043382589551e-004,1.125680205313535e-005
	-1.280043382589526e-004,-1.125680205313381e-005
	0.000000000000000e+000,0.000000000000000e+000
	0.000000000000000e+000,0.000000000000000e+000
	6.591949208711867e-015,-2.771491803416071e-018
2		1.047128548050900e+004,0.000000000000000e+000
	-6.717225697838421e+001,1.285788442992781e-002
	5.000000000000000e-001,0.000000000000000e+000
	3.148523108897905e-015,-1.173140631947206e-019
	6.717225697838373e+001,-1.285788442992798e-002
	-5.000000000000000e-001,0.000000000000000e+000
	0.000000000000000e+000,0.000000000000000e+000
	0.000000000000000e+000,0.000000000000000e+000
	1.000000000000000e+000,0.000000000000000e+000
	-4.478150465225737e-002,8.571922953283376e-006
	-1.280044147432199e-004,-1.151900664192916e-005
	4.490950906700059e-002,2.947083688645784e-006
	4.478150465225737e-002,-8.571922953283376e-006
	1.280044147432199e-004,1.151900664192916e-005
	-4.490950906700059e-002,-2.947083688645784e-006
	0.000000000000000e+000,0.000000000000000e+000
	-4.478150465225582e-002,8.571922953285318e-006
	4.478150465225614e-002,-8.571922953285203e-006
	1.280044147402809e-004,1.151900664193196e-005
	-1.280044147402793e-004,-1.151900664193178e-005
	0.000000000000000e+000,0.000000000000000e+000
	0.000000000000000e+000,0.000000000000000e+000
	-3.191891195797325e-016,-1.151964808265849e-019
3		1.071519305237606e+004,0.000000000000000e+000
	-6.717225686324736e+001,1.315738301031500e-002
	5.000000000000000e-001,0.000000000000000e+000
	3.082603616810786e-015,-9.190307477709159e-020
	6.717225686324650e+001,-1.315738301031504e-002
	-5.000000000000000e-001,0.000000000000000e+000
	0.000000000000000e+000,0.000000000000000e+000
	0.000000000000000e+000,0.000000000000000e+000
	1.000000000000000e+000,0.000000000000000e+000
	-4.478150457549514e-002,8.771588673541358e-006
	-1.280044948333142e-004,-1.178731875915047e-005
	4.490950907032845e-002,3.015730085609114e-006
	4.478150457549514e-002,-8.771588673541358e-006
	1.280044948333142e-004,1.178731875915047e-005
	-4.490950907032845e-002,-3.015730085609113e-006
	0.000000000000000e+000,0.000000000000000e+000
	-4.478150457549767e-002,8.771588673543357e-006
	4.478150457549823e-002,-8.771588673543335e-006
	1.280044948260607e-004,1.178731875915339e-005
	-1.280044948260592e-004,-1.178731875915326e-005
	0.000000000000000e+000,0.000000000000000e+000
	0.000000000000000e+000,0.000000000000000e+000
	-5.620504062164855e-016,-2.202285662861181e-020
4		1.096478196143185e+004,0.000000000000000e+000
	-6.717225674268400e+001,1.346385780722206e-002
	5.000000000000000e-001,0.000000000000000e+000
	4.904063266586434e-015,-8.953138252477955e-019
	6.717225674269335e+001,-1.346385780722629e-002
	-5.000000000000000e-001,0.000000000000000e+000
	0.000000000000000e+000,0.000000000000000e+000
	0.000000000000000e+000,0.000000000000000e+000
	1.000000000000000e+000,0.000000000000000e+000
	-4.478150449511713e-002,8.975905204815925e-006
	-1.280045786958423e-004,-1.206188066733672e-005
	4.490950907381297e-002,3.085975462520799e-006
	4.478150449511713e-002,-8.975905204814144e-006
	1.280045786958492e-004,1.206188066733494e-005
	-4.490950907381298e-002,-3.085975462520799e-006
	0.000000000000000e+000,0.000000000000000e+000
	-4.478150449512890e-002,8.975905204817527e-006
	4.478150449512267e-002,-8.975905204814710e-006
	1.280045786861672e-004,1.206188066733791e-005
	-1.280045786861648e-004,-1.206188066733635e-005
	0.000000000000000e+000,0.000000000000000e+000
	0.000000000000000e+000,0.000000000000000e+000
	6.231126725708691e-015,-2.817231582567803e-018
5		1.122018454301963e+004,0.000000000000000e+000
	-6.717225661643893e+001,1.377747131749237e-002
	5.000000000000000e-001,0.000000000000000e+000
	4.701100619897147e-015,-8.228925082575528e-019
	6.717225661644713e+001,-1.377747131749621e-002
	-5.000000000000000e-001,0.000000000000000e+000
	0.000000000000000e+000,0.000000000000000e+000
	0.000000000000000e+000,0.000000000000000e+000
	1.000000000000000e+000,0.000000000000000e+000
	-4.478150441096297e-002,9.184980878329644e-006
	-1.280046664989334e-004,-1.234283794273464e-005
	4.490950907746191e-002,3.157857064404994e-006
	4.478150441094839e-002,-9.184980878327865e-006
	1.280046665135190e-004,1.234283794273286e-005
	-4.490950907746191e-002,-3.157857064404994e-006
	0.000000000000000e+000,0.000000000000000e+000
	-4.478150441096475e-002,9.184980878330804e-006
	4.478150441095929e-002,-9.184980878328246e-006
	1.280046664984780e-004,1.234283794273553e-005
	-1.280046664984756e-004,-1.234283794273409e-005
	0.000000000000000e+000,0.000000000000000e+000
	0.000000000000000e+000,0.000000000000000e+000
	5.460909502374989e-015,-2.558039500707987e-018
6		1.148153621496882e+004,0.000000000000000e+000
	-6.717225648424437e+001,1.409838982299850e-002
	5.000000000000000e-001,0.000000000000000e+000
	2.558717127065791e-015,1.439956010332311e-019
	6.717225648424058e+001,-1.409838982299726e-002
	-5.000000000000000e-001,0.000000000000000e+000
	0.000000000000000e+000,0.000000000000000e+000
	0.000000000000000e+000,0.000000000000000e+000
	1.000000000000000e+000,0.000000000000000e+000
	-4.478150432282856e-002,9.398926548663010e-006
	-1.280047584544322e-004,-1.263033955249682e-005
	4.490950908128299e-002,3.231413003833809e-006
	4.478150432282856e-002,-9.398926548664791e-006
	1.280047584544322e-004,1.263033955249860e-005
	-4.490950908128299e-002,-3.231413003833809e-006
	0.000000000000000e+000,0.000000000000000e+000
	-4.478150432282705e-002,9.398926548664841e-006
	4.478150432282958e-002,-9.398926548665665e-006
	1.280047584492546e-004,1.263033955250005e-005
	-1.280047584492533e-004,-1.263033955250034e-005
	0.000000000000000e+000,0.000000000000000e+000
	0.000000000000000e+000,0.000000000000000e+000
	-2.532696274926138e-015,8.233160247311799e-019
7		1.174897554939529e+004,0.000000000000000e+000
	-6.717225634581939e+001,1.442678347880624e-002
	5.000000000000000e-001,0.000000000000000e+000
	2.576064361825559e-015,1.376428539288238e-019
	6.717225634581568e+001,-1.442678347880502e-002
	-5.000000000000000e-001,0.000000000000000e+000
	0.000000000000000e+000,0.000000000000000e+000
	0.000000000000000e+000,0.000000000000000e+000
	1.000000000000000e+000,0.000000000000000e+000
	-4.478150423053892e-002,9.617855652536056e-006
	-1.280048547450258e-004,-1.292453793367114e-005
	4.490950908528395e-002,3.306682281135086e-006
	4.478150423053892e-002,-9.617855652536056e-006
	1.280048547450258e-004,1.292453793367114e-005
	-4.490950908528395e-002,-3.306682281135086e-006
	0.000000000000000e+000,0.000000000000000e+000
	-4.478150423054379e-002,9.617855652536680e-006
	4.478150423054626e-002,-9.617855652537491e-006
	1.280048547335379e-004,1.292453793367318e-005
	-1.280048547335366e-004,-1.292453793367347e-005
	0.000000000000000e+000,0.000000000000000e+000
	0.000000000000000e+000,0.000000000000000e+000
	-2.477185123694881e-015,8.114575634696197e-019
8		1.202264434617413e+004,0.000000000000000e+000
	-6.717225620087032e+001,1.476282640339298e-002
	5.000000000000000e-001,0.000000000000000e+000
	4.853756285783106e-015,-9.563001974501051e-019
	6.717225620087939e+001,-1.476282640339748e-002
	-5.000000000000000e-001,0.000000000000000e+000
	0.000000000000000e+000,0.000000000000000e+000
	0.000000000000000e+000,0.000000000000000e+000
	1.000000000000000e+000,0.000000000000000e+000
	-4.478150413391911e-002,9.841884268930131e-006
	-1.280049555541507e-004,-1.322558907400073e-005
	4.490950908947326e-002,3.383704805070600e-006
	4.478150413390453e-002,-9.841884268926572e-006
	1.280049555687293e-004,1.322558907399717e-005
	-4.490950908947326e-002,-3.383704805070601e-006
	0.000000000000000e+000,0.000000000000000e+000
	-4.478150413391959e-002,9.841884268931654e-006
	4.478150413391355e-002,-9.841884268928655e-006
	1.280049555555600e-004,1.322558907400184e-005
	-1.280049555555575e-004,-1.322558907400017e-005
	0.000000000000000e+000,0.000000000000000e+000
	0.000000000000000e+000,0.000000000000000e+000
	6.043776590303196e-015,-2.998496633280223e-018
9		1.230268770812381e+004,0.000000000000000e+000
	-6.717225604909079e+001,1.510669677096715e-002
	5.000000000000000e-001,0.000000000000000e+000
	1.509209424099822e-015,6.716971271726602e-019
	6.717225604908111e+001,-1.510669677096311e-002
	-5.000000000000000e-001,0.000000000000000e+000
	0.000000000000000e+000,0.000000000000000e+000
	0.000000000000000e+000,0.000000000000000e+000
	1.000000000000000e+000,0.000000000000000e+000
	-4.478150403272126e-002,1.007113118064060e-005
	-1.280050611392677e-004,-1.353365259463662e-005
	4.490950909386052e-002,3.462521413996015e-006
	4.478150403272126e-002,-1.007113118064416e-005
	1.280050611392677e-004,1.353365259464017e-005
	-4.490950909386052e-002,-3.462521413996014e-006
	0.000000000000000e+000,0.000000000000000e+000
	-4.478150403272074e-002,1.007113118064208e-005
	4.478150403272720e-002,-1.007113118064477e-005
	1.280050611291755e-004,1.353365259464047e-005
	-1.280050611291747e-004,-1.353365259464171e-005
	0.000000000000000e+000,0.000000000000000e+000
	0.000000000000000e+000,0.000000000000000e+000
	-6.453171330633722e-015,2.690176640479658e-018
10		1.258925411794167e+004,0.000000000000000e+000
	-6.717225589015720e+001,1.545857690593492e-002
	5.000000000000000e-001,0.000000000000000e+000
	4.640385298237959e-015,-8.906551440378968e-019
	6.717225589016509e+001,-1.545857690593906e-002
	-5.000000000000000e-001,0.000000000000000e+000
	0.000000000000000e+000,0.000000000000000e+000
	0.000000000000000e+000,0.000000000000000e+000
	1.000000000000000e+000,0.000000000000000e+000
	-4.478150392677042e-002,1.030571793729070e-005
	-1.280051716835290e-004,-1.384889183480563e-005
	4.490950909845395e-002,3.543173897514928e-006
	4.478150392677042e-002,-1.030571793728892e-005
	1.280051716835359e-004,1.384889183480385e-005
	-4.490950909845395e-002,-3.543173897514928e-006
	0.000000000000000e+000,0.000000000000000e+000
	-4.478150392677673e-002,1.030571793729271e-005
	4.478150392677147e-002,-1.030571793728995e-005
	1.280051716783235e-004,1.384889183480739e-005
	-1.280051716783211e-004,-1.384889183480583e-005
	0.000000000000000e+000,0.000000000000000e+000
	0.000000000000000e+000,0.000000000000000e+000
	5.259681579161679e-015,-2.763021473943528e-018
11		1.288249551693133e+004,0.000000000000000e+000
	-6.717225572373408e+001,1.581865337957422e-002
	5.000000000000000e-001,0.000000000000000e+000
	2.369632268184319e-015,2.596155983334431e-019
	6.717225572372924e+001,-1.581865337957233e-002
	-5.000000000000000e-001,0.000000000000000e+000
	0.000000000000000e+000,0.000000000000000e+000
	0.000000000000000e+000,0.000000000000000e+000
	1.000000000000000e+000,0.000000000000000e+000
	-4.478150381581874e-002,1.054576891971407e-005
	-1.280052874456233e-004,-1.417147393834868e-005
	4.490950910326436e-002,3.625705018634613e-006
	4.478150381581874e-002,-1.054576891971407e-005
	1.280052874456233e-004,1.417147393834868e-005
	-4.490950910326436e-002,-3.625705018634613e-006
	0.000000000000000e+000,0.000000000000000e+000
	-4.478150381581949e-002,1.054576891971488e-005
	4.478150381582272e-002,-1.054576891971615e-005
	1.280052874374903e-004,1.417147393835124e-005
	-1.280052874374891e-004,-1.417147393835174e-005
	0.000000000000000e+000,0.000000000000000e+000
	0.000000000000000e+000,0.000000000000000e+000
	-3.233524559220768e-015,1.263773157303416e-018
12		1.318256738556407e+004,0.000000000000000e+000
	-6.717225554946730e+001,1.618711710895194e-002
	5.000000000000000e-001,0.000000000000000e+000
	2.817190924986335e-015,2.583450489125616e-020
	6.717225554946496e+001,-1.618711710895125e-002
	-5.000000000000000e-001,0.000000000000000e+000
	0.000000000000000e+000,0.000000000000000e+000
	0.000000000000000e+000,0.000000000000000e+000
	1.000000000000000e+000,0.000000000000000e+000
	-4.478150369963294e-002,1.079141140596568e-005
	-1.280054086682941e-004,-1.450156994240683e-005
	4.490950910830123e-002,3.710158536441151e-006
	4.478150369963294e-002,-1.079141140596568e-005
	1.280054086683011e-004,1.450156994240683e-005
	-4.490950910830124e-002,-3.710158536441151e-006
	0.000000000000000e+000,0.000000000000000e+000
	-4.478150369964331e-002,1.079141140596750e-005
	4.478150369964486e-002,-1.079141140596796e-005
	1.280054086522188e-004,1.450156994241002e-005
	-1.280054086522173e-004,-1.450156994241011e-005
	0.000000000000000e+000,0.000000000000000e+000
	0.000000000000000e+000,0.000000000000000e+000
	-1.554312234475219e-015,4.607859233063394e-019
13		1.348962882591653e+004,0.000000000000000e+000
	-6.717225536698773e+001,1.656416345815267e-002
	5.000000000000000e-001,0.000000000000000e+000
	2.121566811119635e-015,4.061522982084370e-019
	6.717225536698147e+001,-1.656416345814998e-002
	-5.000000000000000e-001,0.000000000000000e+000
	0.000000000000000e+000,0.000000000000000e+000
	0.000000000000000e+000,0.000000000000000e+000
	1.000000000000000e+000,0.000000000000000e+000
	-4.478150357797973e-002,1.104277563876374e-005
	-1.280055355958529e-004,-1.483935486806357e-005
	4.490950911357559e-002,3.796579229299824e-006
	4.478150357797973e-002,-1.104277563876730e-005
	1.280055355958459e-004,1.483935486806713e-005
	-4.490950911357558e-002,-3.796579229299825e-006
	0.000000000000000e+000,0.000000000000000e+000
	-4.478150357798765e-002,1.104277563876665e-005
	4.478150357799181e-002,-1.104277563876845e-005
	1.280055355796204e-004,1.483935486806852e-005
	-1.280055355796193e-004,-1.483935486806929e-005
	0.000000000000000e+000,0.000000000000000e+000
	0.000000000000000e+000,0.000000000000000e+000
	-4.163336342344337e-015,1.792321716390100e-018
14		1.380384264602884e+004,0.000000000000000e+000
	-6.717225517590775e+001,1.694999234186002e-002
	5.000000000000000e-001,0.000000000000000e+000
	4.400993458553160e-015,-8.461859143070460e-019
	6.717225517591429e+001,-1.694999234186387e-002
	-5.000000000000000e-001,0.000000000000000e+000
	0.000000000000000e+000,0.000000000000000e+000
	0.000000000000000e+000,0.000000000000000e+000
	1.000000000000000e+000,0.000000000000000e+000
	-4.478150345059671e-002,1.129999489457611e-005
	-1.280056685015324e-004,-1.518500781317406e-005
	4.490950911909824e-002,3.885012918597946e-006
	4.478150345059671e-002,-1.129999489457255e-005
	1.280056685015324e-004,1.518500781317050e-005
	-4.490950911909824e-002,-3.885012918597946e-006
	0.000000000000000e+000,0.000000000000000e+000
	-4.478150345060952e-002,1.129999489457591e-005
	4.478150345060517e-002,-1.129999489457334e-005
	1.280056684889262e-004,1.518500781317381e-005
	-1.280056684889239e-004,-1.518500781317234e-005
	0.000000000000000e+000,0.000000000000000e+000
	0.000000000000000e+000,0.000000000000000e+000
	4.357625371653739e-015,-2.569897961969547e-018
15		1.412537544622754e+004,0.000000000000000e+000
	-6.717225497582312e+001,1.734480833135486e-002
	5.000000000000000e-001,0.000000000000000e+000
	1.814520755871740e-015,5.992758101824175e-019
	6.717225497581514e+001,-1.734480833135112e-002
	-5.000000000000000e-001,0.000000000000000e+000
	0.000000000000000e+000,0.000000000000000e+000
	0.000000000000000e+000,0.000000000000000e+000
	1.000000000000000e+000,0.000000000000000e+000
	-4.478150331720684e-002,1.156320555423367e-005
	-1.280058076747748e-004,-1.553871204727277e-005
	4.490950912488161e-002,3.975506493039104e-006
	4.478150331720684e-002,-1.156320555423367e-005
	1.280058076747748e-004,1.553871204727277e-005
	-4.490950912488161e-002,-3.975506493039104e-006
	0.000000000000000e+000,0.000000000000000e+000
	-4.478150331721009e-002,1.156320555423408e-005
	4.478150331721541e-002,-1.156320555423657e-005
	1.280058076620524e-004,1.553871204727563e-005
	-1.280058076620515e-004,-1.553871204727674e-005
	0.000000000000000e+000,0.000000000000000e+000
	0.000000000000000e+000,0.000000000000000e+000
	-5.322131624296844e-015,2.490276864927643e-018
16		1.445439770745927e+004,0.000000000000000e+000
	-6.717225476630833e+001,1.774882076297721e-002
	5.000000000000000e-001,0.000000000000000e+000
	2.487593464550741e-015,2.202285662861181e-019
	6.717225476630415e+001,-1.774882076297545e-002
	-5.000000000000000e-001,0.000000000000000e+000
	0.000000000000000e+000,0.000000000000000e+000
	0.000000000000000e+000,0.000000000000000e+000
	1.000000000000000e+000,0.000000000000000e+000
	-4.478150317753310e-002,1.183254717531637e-005
	-1.280059534041408e-004,-1.590065510882168e-005
	4.490950913093724e-002,4.068107933505309e-006
	4.478150317753310e-002,-1.183254717531637e-005
	1.280059534041478e-004,1.590065510882168e-005
	-4.490950913093725e-002,-4.068107933505309e-006
	0.000000000000000e+000,0.000000000000000e+000
	-4.478150317753610e-002,1.183254717531696e-005
	4.478150317753889e-002,-1.183254717531814e-005
	1.280059533942061e-004,1.590065510882411e-005
	-1.280059533942049e-004,-1.590065510882454e-005
	0.000000000000000e+000,0.000000000000000e+000
	0.000000000000000e+000,0.000000000000000e+000
	-2.789435349370706e-015,1.175681730788969e-018
17		1.479108388168207e+004,0.000000000000000e+000
	-6.717225454691949e+001,1.816224384912068e-002
	5.000000000000000e-001,0.000000000000000e+000
	2.595146320061303e-015,1.651714247145886e-019
	6.717225454691591e+001,-1.816224384911920e-002
	-5.000000000000000e-001,0.000000000000000e+000
	0.000000000000000e+000,0.000000000000000e+000
	0.000000000000000e+000,0.000000000000000e+000
	1.000000000000000e+000,0.000000000000000e+000
	-4.478150303126934e-002,1.210816256607697e-005
	-1.280061060089932e-004,-1.627102890457283e-005
	4.490950913727833e-002,4.162866338495863e-006
	4.478150303126934e-002,-1.210816256608052e-005
	1.280061060089932e-004,1.627102890457639e-005
	-4.490950913727833e-002,-4.162866338495864e-006
	0.000000000000000e+000,0.000000000000000e+000
	-4.478150303127727e-002,1.210816256607947e-005
	4.478150303127966e-002,-1.210816256608045e-005
	1.280061059945035e-004,1.627102890457710e-005
	-1.280061059945021e-004,-1.627102890457744e-005
	0.000000000000000e+000,0.000000000000000e+000
	0.000000000000000e+000,0.000000000000000e+000
	-2.386979502944087e-015,9.859463506040056e-019
18		1.513561248436208e+004,0.000000000000000e+000
	-6.717225431719126e+001,1.858529679180730e-002
	5.000000000000000e-001,0.000000000000000e+000
	2.281161370909501e-015,3.566008707940604e-019
	6.717225431718592e+001,-1.858529679180479e-002
	-5.000000000000000e-001,0.000000000000000e+000
	0.000000000000000e+000,0.000000000000000e+000
	0.000000000000000e+000,0.000000000000000e+000
	1.000000000000000e+000,0.000000000000000e+000
	-4.478150287812394e-002,1.239019786120151e-005
	-1.280062657943656e-004,-1.665002981136217e-005
	4.490950914391830e-002,4.259831950160666e-006
	4.478150287812394e-002,-1.239019786120507e-005
	1.280062657943587e-004,1.665002981136573e-005
	-4.490950914391829e-002,-4.259831950160666e-006
	0.000000000000000e+000,0.000000000000000e+000
	-4.478150287812394e-002,1.239019786120320e-005
	4.478150287812750e-002,-1.239019786120487e-005
	1.280062657866301e-004,1.665002981136599e-005
	-1.280062657866289e-004,-1.665002981136668e-005
	0.000000000000000e+000,0.000000000000000e+000
	0.000000000000000e+000,0.000000000000000e+000
	-3.559652572704408e-015,1.672043037879989e-018
19		1.548816618912481e+004,0.000000000000000e+000
	-6.717225407663631e+001,1.901820389890999e-002
	5.000000000000000e-001,0.000000000000000e+000
	1.729519305548877e-015,7.089665768518494e-019
	6.717225407662785e+001,-1.901820389890562e-002
	-5.000000000000000e-001,0.000000000000000e+000
	0.000000000000000e+000,0.000000000000000e+000
	0.000000000000000e+000,0.000000000000000e+000
	1.000000000000000e+000,0.000000000000000e+000
	-4.478150271774700e-002,1.267880259926762e-005
	-1.280064331242170e-004,-1.703785878020666e-005
	4.490950915087122e-002,4.359056180939040e-006
	4.478150271774700e-002,-1.267880259927118e-005
	1.280064331242170e-004,1.703785878021022e-005
	-4.490950915087122e-002,-4.359056180939040e-006
	0.000000000000000e+000,0.000000000000000e+000
	-4.478150271775190e-002,1.267880259927042e-005
	4.478150271775754e-002,-1.267880259927332e-005
	1.280064331095264e-004,1.703785878021223e-005
	-1.280064331095255e-004,-1.703785878021354e-005
	0.000000000000000e+000,0.000000000000000e+000
	0.000000000000000e+000,0.000000000000000e+000
	-5.634381849972669e-015,2.907017074976759e-018
20		1.584893192461113e+004,0.000000000000000e+000
	-6.717225382474381e+001,1.946119470308120e-002
	5.000000000000000e-001,0.000000000000000e+000
	5.098352295895836e-015,-1.414545021914682e-018
	6.717225382475424e+001,-1.946119470308795e-002
	-5.000000000000000e-001,0.000000000000000e+000
	0.000000000000000e+000,0.000000000000000e+000
	0.000000000000000e+000,0.000000000000000e+000
	1.000000000000000e+000,0.000000000000000e+000
	-4.478150254983235e-002,1.297412980205737e-005
	-1.280066083191034e-004,-1.743472144287681e-005
	4.490950915815145e-002,4.460591640819438e-006
	4.478150254981776e-002,-1.297412980205381e-005
	1.280066083336959e-004,1.743472144287325e-005
	-4.490950915815146e-002,-4.460591640819439e-006
	0.000000000000000e+000,0.000000000000000e+000
	-4.478150254983616e-002,1.297412980205863e-005
	4.478150254982920e-002,-1.297412980205413e-005
	1.280066083181076e-004,1.743472144287725e-005
	-1.280066083181050e-004,-1.743472144287477e-005
	0.000000000000000e+000,0.000000000000000e+000
	0.000000000000000e+000,0.000000000000000e+000
	6.952771691715043e-015,-4.501133081709352e-018
21		1.621810097358929e+004,0.000000000000000e+000
	-6.717225356098049e+001,1.991450408345407e-002
	5.000000000000000e-001,0.000000000000000e+000
	4.597017211338539e-015,-1.124859753953711e-018
	6.717225356098814e+001,-1.991450408345927e-002
	-5.000000000000000e-001,0.000000000000000e+000
	0.000000000000000e+000,0.000000000000000e+000
	0.000000000000000e+000,0.000000000000000e+000
	1.000000000000000e+000,0.000000000000000e+000
	-4.478150237398632e-002,1.327633605563915e-005
	-1.280067917888428e-004,-1.784082822087227e-005
	4.490950916577517e-002,4.564492165233123e-006
	4.478150237398632e-002,-1.327633605563559e-005
	1.280067917888428e-004,1.784082822086871e-005
	-4.490950916577517e-002,-4.564492165233123e-006
	0.000000000000000e+000,0.000000000000000e+000
	-4.478150237399209e-002,1.327633605563951e-005
	4.478150237398700e-002,-1.327633605563604e-005
	1.280067917840124e-004,1.784082822087236e-005
	-1.280067917840101e-004,-1.784082822087040e-005
	0.000000000000000e+000,0.000000000000000e+000
	0.000000000000000e+000,0.000000000000000e+000
	5.093148125467906e-015,-3.467752886059106e-018
22		1.659586907437560e+004,0.000000000000000e+000
	-6.717225328478638e+001,2.037837239017337e-002
	5.000000000000000e-001,0.000000000000000e+000
	4.406197628981090e-015,-1.022368767335941e-018
	6.717225328479296e+001,-2.037837239017802e-002
	-5.000000000000000e-001,0.000000000000000e+000
	0.000000000000000e+000,0.000000000000000e+000
	0.000000000000000e+000,0.000000000000000e+000
	1.000000000000000e+000,0.000000000000000e+000
	-4.478150218985902e-002,1.358558159345003e-005
	-1.280069838991219e-004,-1.825639443704953e-005
	4.490950917375814e-002,4.670812843599505e-006
	4.478150218985902e-002,-1.358558159344647e-005
	1.280069838991219e-004,1.825639443704597e-005
	-4.490950917375814e-002,-4.670812843599504e-006
	0.000000000000000e+000,0.000000000000000e+000
	-4.478150218986197e-002,1.358558159345202e-005
	4.478150218985758e-002,-1.358558159344891e-005
	1.280069838963976e-004,1.825639443705145e-005
	-1.280069838963953e-004,-1.825639443704967e-005
	0.000000000000000e+000,0.000000000000000e+000
	0.000000000000000e+000,0.000000000000000e+000
	4.392319841173276e-015,-3.101834652845248e-018
23		1.698243652461744e+004,0.000000000000000e+000
	-6.717225299557558e+001,2.085304557183192e-002
	5.000000000000000e-001,0.000000000000000e+000
	4.732325642464730e-015,-1.270549420881451e-018
	6.717225299558396e+001,-2.085304557183784e-002
	-5.000000000000000e-001,0.000000000000000e+000
	0.000000000000000e+000,0.000000000000000e+000
	0.000000000000000e+000,0.000000000000000e+000
	1.000000000000000e+000,0.000000000000000e+000
	-4.478150199705678e-002,1.390203038122192e-005
	-1.280071850605288e-004,-1.868164042975638e-005
	4.490950918211731e-002,4.779610048534455e-006
	4.478150199704219e-002,-1.390203038121836e-005
	1.280071850751074e-004,1.868164042975282e-005
	-4.490950918211730e-002,-4.779610048534456e-006
	0.000000000000000e+000,0.000000000000000e+000
	-4.478150199705597e-002,1.390203038122523e-005
	4.478150199705038e-002,-1.390203038122128e-005
	1.280071850627589e-004,1.868164042975924e-005
	-1.280071850627564e-004,-1.868164042975702e-005
	0.000000000000000e+000,0.000000000000000e+000
	0.000000000000000e+000,0.000000000000000e+000
	5.592748486549226e-015,-3.945479468310531e-018
24		1.737800828749374e+004,0.000000000000000e+000
	-6.717225269273511e+001,2.133877530587337e-002
	5.000000000000000e-001,0.000000000000000e+000
	1.786765180256111e-015,7.572474548453445e-019
	6.717225269272701e+001,-2.133877530586868e-002
	-5.000000000000000e-001,0.000000000000000e+000
	0.000000000000000e+000,0.000000000000000e+000
	0.000000000000000e+000,0.000000000000000e+000
	1.000000000000000e+000,0.000000000000000e+000
	-4.478150179514221e-002,1.422585020391175e-005
	-1.280073957284980e-004,-1.911679166965148e-005
	4.490950919087071e-002,4.890941465739727e-006
	4.478150179515679e-002,-1.422585020391532e-005
	1.280073957139194e-004,1.911679166965504e-005
	-4.490950919087071e-002,-4.890941465739727e-006
	0.000000000000000e+000,0.000000000000000e+000
	-4.478150179515134e-002,1.422585020391245e-005
	4.478150179515674e-002,-1.422585020391558e-005
	1.280073957097960e-004,1.911679166965522e-005
	-1.280073957097951e-004,-1.911679166965662e-005
	0.000000000000000e+000,0.000000000000000e+000
	0.000000000000000e+000,0.000000000000000e+000
	-5.398459457239824e-015,3.123857509473860e-018
25		1.778279410038922e+004,0.000000000000000e+000
	-6.717225237562157e+001,2.183581913203004e-002
	5.000000000000000e-001,0.000000000000000e+000
	3.790370795009324e-015,-6.539094352803199e-019
	6.717225237562465e+001,-2.183581913203271e-002
	-5.000000000000000e-001,0.000000000000000e+000
	0.000000000000000e+000,0.000000000000000e+000
	0.000000000000000e+000,0.000000000000000e+000
	1.000000000000000e+000,0.000000000000000e+000
	-4.478150158375083e-002,1.455721275468547e-005
	-1.280076162853555e-004,-1.956207887927490e-005
	4.490950920003618e-002,5.004866124589430e-006
	4.478150158373625e-002,-1.455721275468547e-005
	1.280076162999480e-004,1.956207887927490e-005
	-4.490950920003620e-002,-5.004866124589430e-006
	0.000000000000000e+000,0.000000000000000e+000
	-4.478150158374977e-002,1.455721275468847e-005
	4.478150158374771e-002,-1.455721275468669e-005
	1.280076162843215e-004,1.956207887927859e-005
	-1.280076162843195e-004,-1.956207887927747e-005
	0.000000000000000e+000,0.000000000000000e+000
	0.000000000000000e+000,0.000000000000000e+000
	2.053912595556540e-015,-1.778769189234031e-018