Title: * E:\Eigene Dateien\Visual Studio Projects\git\ltspice2matlab\testdata\XVII\text\ac\ac.asc
Date: Thu Feb 21 17:00:47 2019
Plotname: AC Analysis
Flags: complex forward log
No. Variables: 23
No. Points:          401
Offset:   0.0000000000000000e+000
Command: Linear Technology Corporation LTspice XVII -- Alternate Solver
Variables:
	0	frequency	frequency
	1	V(uc1)	voltage
	2	V(ue1)	voltage
	3	V(ue12)	voltage
	4	V(uc2)	voltage
	5	V(ue2)	voltage
	6	V(vee)	voltage
	7	V(vcc)	voltage
	8	V(ued)	voltage
	9	Ic(Q2)	device_current
	10	Ib(Q2)	device_current
	11	Ie(Q2)	device_current
	12	Ic(Q1)	device_current
	13	Ib(Q1)	device_current
	14	Ie(Q1)	device_current
	15	I(I1)	device_current
	16	I(R2)	device_current
	17	I(R1)	device_current
	18	I(E2)	device_current
	19	I(E1)	device_current
	20	I(V1)	device_current
	21	I(Ve)	device_current
	22	I(Vc)	device_current
Values:
0		1.000000000000000e+004,0.000000000000000e+000
	-1.245034822674326e+002,2.427353550304802e-002
	5.000000000000000e-001,0.000000000000000e+000
	1.954952042262925e-018,-9.181704799338607e-023
	1.245034822674326e+002,-2.427353550304802e-002
	-5.000000000000000e-001,0.000000000000000e+000
	0.000000000000000e+000,0.000000000000000e+000
	0.000000000000000e+000,0.000000000000000e+000
	1.000000000000000e+000,0.000000000000000e+000
	-8.300232151162171e-002,1.618235700203201e-005
	-2.681308723151329e-004,-2.132312826246612e-005
	8.327045238393684e-002,5.140771260434109e-006
	8.300232151162171e-002,-1.618235700203201e-005
	2.681308723151329e-004,2.132312826246612e-005
	-8.327045238393684e-002,-5.140771260434109e-006
	0.000000000000000e+000,0.000000000000000e+000
	-8.300232151162171e-002,1.618235700203202e-005
	8.300232151162171e-002,-1.618235700203202e-005
	2.681308723151284e-004,2.132312826246612e-005
	-2.681308723151284e-004,-2.132312826246612e-005
	0.000000000000000e+000,0.000000000000000e+000
	0.000000000000000e+000,0.000000000000000e+000
	5.353248226647178e-019,-2.283018490646356e-022
1		1.023292992280754e+004,0.000000000000000e+000
	-1.245034820452914e+002,2.483893873400623e-002
	5.000000000000000e-001,0.000000000000000e+000
	2.864665427614044e-018,-4.901045129376689e-022
	1.245034820452914e+002,-2.483893873400623e-002
	-5.000000000000000e-001,0.000000000000000e+000
	0.000000000000000e+000,0.000000000000000e+000
	0.000000000000000e+000,0.000000000000000e+000
	1.000000000000000e+000,0.000000000000000e+000
	-8.300232136352757e-002,1.655929248933749e-005
	-2.681310340809960e-004,-2.181980769234135e-005
	8.327045239760857e-002,5.260515203003863e-006
	8.300232136352756e-002,-1.655929248933749e-005
	2.681310340810031e-004,2.181980769234135e-005
	-8.327045239760857e-002,-5.260515203003863e-006
	0.000000000000000e+000,0.000000000000000e+000
	-8.300232136352757e-002,1.655929248933749e-005
	8.300232136352757e-002,-1.655929248933749e-005
	2.681310340809966e-004,2.181980769234135e-005
	-2.681310340809966e-004,-2.181980769234135e-005
	0.000000000000000e+000,0.000000000000000e+000
	0.000000000000000e+000,0.000000000000000e+000
	3.686287386450715e-018,-1.561716996500116e-021
2		1.047128548050900e+004,0.000000000000000e+000
	-1.245034818126810e+002,2.541751189490174e-002
	5.000000000000000e-001,0.000000000000000e+000
	3.037460148853921e-018,-5.769584772557368e-022
	1.245034818126810e+002,-2.541751189490174e-002
	-5.000000000000000e-001,0.000000000000000e+000
	0.000000000000000e+000,0.000000000000000e+000
	0.000000000000000e+000,0.000000000000000e+000
	1.000000000000000e+000,0.000000000000000e+000
	-8.300232120845397e-002,1.694500792993449e-005
	-2.681312034706529e-004,-2.232805627004376e-005
	8.327045241192463e-002,5.383048340109266e-006
	8.300232120845397e-002,-1.694500792993449e-005
	2.681312034706600e-004,2.232805627004376e-005
	-8.327045241192463e-002,-5.383048340109266e-006
	0.000000000000000e+000,0.000000000000000e+000
	-8.300232120845397e-002,1.694500792993449e-005
	8.300232120845397e-002,-1.694500792993449e-005
	2.681312034706548e-004,2.232805627004376e-005
	-2.681312034706548e-004,-2.232805627004376e-005
	0.000000000000000e+000,0.000000000000000e+000
	0.000000000000000e+000,0.000000000000000e+000
	4.282598581317743e-018,-1.854538933343888e-021
3		1.071519305237606e+004,0.000000000000000e+000
	-1.245034815691080e+002,2.600956175258512e-002
	5.000000000000000e-001,0.000000000000000e+000
	1.243444366569313e-018,2.270610781458061e-022
	1.245034815691080e+002,-2.600956175258512e-002
	-5.000000000000000e-001,0.000000000000000e+000
	0.000000000000000e+000,0.000000000000000e+000
	0.000000000000000e+000,0.000000000000000e+000
	1.000000000000000e+000,0.000000000000000e+000
	-8.300232104607197e-002,1.733970783505675e-005
	-2.681313808434038e-004,-2.284814347547996e-005
	8.327045242691537e-002,5.508435640423213e-006
	8.300232104607197e-002,-1.733970783505675e-005
	2.681313808434038e-004,2.284814347547996e-005
	-8.327045242691537e-002,-5.508435640423213e-006
	0.000000000000000e+000,0.000000000000000e+000
	-8.300232104607197e-002,1.733970783505675e-005
	8.300232104607197e-002,-1.733970783505675e-005
	2.681313808434009e-004,2.284814347547996e-005
	-2.681313808434009e-004,-2.284814347547996e-005
	0.000000000000000e+000,0.000000000000000e+000
	0.000000000000000e+000,0.000000000000000e+000
	-1.931235119739805e-018,8.404155023538761e-022
4		1.096478196143185e+004,0.000000000000000e+000
	-1.245034813140557e+002,2.661540221940871e-002
	5.000000000000000e-001,0.000000000000000e+000
	3.413542777434830e-018,-7.816856788626112e-022
	1.245034813140557e+002,-2.661540221940872e-002
	-5.000000000000000e-001,0.000000000000000e+000
	0.000000000000000e+000,0.000000000000000e+000
	0.000000000000000e+000,0.000000000000000e+000
	1.000000000000000e+000,0.000000000000000e+000
	-8.300232087603715e-002,1.774360147960581e-005
	-2.681315665754626e-004,-2.338034506553821e-005
	8.327045244261262e-002,5.636743585932398e-006
	8.300232087603715e-002,-1.774360147960581e-005
	2.681315665754697e-004,2.338034506553821e-005
	-8.327045244261262e-002,-5.636743585932398e-006
	0.000000000000000e+000,0.000000000000000e+000
	-8.300232087603715e-002,1.774360147960581e-005
	8.300232087603715e-002,-1.774360147960581e-005
	2.681315665754662e-004,2.338034506553821e-005
	-2.681315665754662e-004,-2.338034506553821e-005
	0.000000000000000e+000,0.000000000000000e+000
	0.000000000000000e+000,0.000000000000000e+000
	5.583641188300348e-018,-2.532827035637371e-021
5		1.122018454301963e+004,0.000000000000000e+000
	-1.245034810469833e+002,2.723535451966553e-002
	5.000000000000000e-001,0.000000000000000e+000
	1.677125235563515e-019,7.498392252793196e-022
	1.245034810469832e+002,-2.723535451966553e-002
	-5.000000000000000e-001,0.000000000000000e+000
	0.000000000000000e+000,0.000000000000000e+000
	0.000000000000000e+000,0.000000000000000e+000
	1.000000000000000e+000,0.000000000000000e+000
	-8.300232069798882e-002,1.815690301311035e-005
	-2.681317610608252e-004,-2.392494322029721e-005
	8.327045245904965e-002,5.768040207186855e-006
	8.300232069798884e-002,-1.815690301311035e-005
	2.681317610608181e-004,2.392494322029721e-005
	-8.327045245904965e-002,-5.768040207186855e-006
	0.000000000000000e+000,0.000000000000000e+000
	-8.300232069798882e-002,1.815690301311035e-005
	8.300232069798884e-002,-1.815690301311035e-005
	2.681317610608133e-004,2.392494322029721e-005
	-2.681317610608133e-004,-2.392494322029721e-005
	0.000000000000000e+000,0.000000000000000e+000
	0.000000000000000e+000,0.000000000000000e+000
	-5.658180087658726e-018,2.599001484641613e-021
6		1.148153621496883e+004,0.000000000000000e+000
	-1.245034807673241e+002,2.786974735990502e-002
	5.000000000000000e-001,0.000000000000000e+000
	2.791820594150174e-018,-5.157471119268128e-022
	1.245034807673241e+002,-2.786974735990502e-002
	-5.000000000000000e-001,0.000000000000000e+000
	0.000000000000000e+000,0.000000000000000e+000
	0.000000000000000e+000,0.000000000000000e+000
	1.000000000000000e+000,0.000000000000000e+000
	-8.300232051154936e-002,1.857983157327001e-005
	-2.681319647119684e-004,-2.448222669264057e-005
	8.327045247626133e-002,5.902395119370553e-006
	8.300232051154936e-002,-1.857983157327001e-005
	2.681319647119755e-004,2.448222669264057e-005
	-8.327045247626133e-002,-5.902395119370553e-006
	0.000000000000000e+000,0.000000000000000e+000
	-8.300232051154936e-002,1.857983157327001e-005
	8.300232051154936e-002,-1.857983157327001e-005
	2.681319647119716e-004,2.448222669264057e-005
	-2.681319647119716e-004,-2.448222669264057e-005
	0.000000000000000e+000,0.000000000000000e+000
	0.000000000000000e+000,0.000000000000000e+000
	3.435565634063442e-018,-1.636163251629889e-021
7		1.174897554939529e+004,0.000000000000000e+000
	-1.245034804744849e+002,2.851891710321590e-002
	5.000000000000000e-001,0.000000000000000e+000
	1.368805242762949e-018,1.848748669056017e-022
	1.245034804744849e+002,-2.851891710321590e-002
	-5.000000000000000e-001,0.000000000000000e+000
	0.000000000000000e+000,0.000000000000000e+000
	0.000000000000000e+000,0.000000000000000e+000
	1.000000000000000e+000,0.000000000000000e+000
	-8.300232031632326e-002,1.901261140214393e-005
	-2.681321779609197e-004,-2.505249096135611e-005
	8.327045249428418e-002,6.039879559212178e-006
	8.300232031632326e-002,-1.901261140214393e-005
	2.681321779609126e-004,2.505249096135611e-005
	-8.327045249428418e-002,-6.039879559212178e-006
	0.000000000000000e+000,0.000000000000000e+000
	-8.300232031632326e-002,1.901261140214393e-005
	8.300232031632326e-002,-1.901261140214393e-005
	2.681321779609122e-004,2.505249096135611e-005
	-2.681321779609122e-004,-2.505249096135611e-005
	0.000000000000000e+000,0.000000000000000e+000
	0.000000000000000e+000,0.000000000000000e+000
	-1.497554250745603e-018,7.146840492458159e-022
8		1.202264434617413e+004,0.000000000000000e+000
	-1.245034801678447e+002,2.918320794756842e-002
	5.000000000000000e-001,0.000000000000000e+000
	8.419507495707745e-019,4.582580593543773e-022
	1.245034801678447e+002,-2.918320794756842e-002
	-5.000000000000000e-001,0.000000000000000e+000
	0.000000000000000e+000,0.000000000000000e+000
	0.000000000000000e+000,0.000000000000000e+000
	1.000000000000000e+000,0.000000000000000e+000
	-8.300232011189646e-002,1.945547196504561e-005
	-2.681324012599700e-004,-2.563603838780130e-005
	8.327045251315642e-002,6.180566422755684e-006
	8.300232011189646e-002,-1.945547196504561e-005
	2.681324012599700e-004,2.563603838780130e-005
	-8.327045251315642e-002,-6.180566422755684e-006
	0.000000000000000e+000,0.000000000000000e+000
	-8.300232011189646e-002,1.945547196504561e-005
	8.300232011189646e-002,-1.945547196504561e-005
	2.681324012599647e-004,2.563603838780130e-005
	-2.681324012599647e-004,-2.563603838780130e-005
	0.000000000000000e+000,0.000000000000000e+000
	0.000000000000000e+000,0.000000000000000e+000
	-3.320369153236857e-018,1.629545806729465e-021
9		1.230268770812381e+004,0.000000000000000e+000
	-1.245034798467530e+002,2.986297210831068e-002
	5.000000000000000e-001,0.000000000000000e+000
	2.641048729538909e-018,-4.727337200740553e-022
	1.245034798467530e+002,-2.986297210831069e-002
	-5.000000000000000e-001,0.000000000000000e+000
	0.000000000000000e+000,0.000000000000000e+000
	0.000000000000000e+000,0.000000000000000e+000
	1.000000000000000e+000,0.000000000000000e+000
	-8.300231989783530e-002,1.990864807220712e-005
	-2.681326350827751e-004,-2.623317837621773e-005
	8.327045253291808e-002,6.324530304010604e-006
	8.300231989783530e-002,-1.990864807220712e-005
	2.681326350827822e-004,2.623317837621773e-005
	-8.327045253291808e-002,-6.324530304010604e-006
	0.000000000000000e+000,0.000000000000000e+000
	-8.300231989783530e-002,1.990864807220712e-005
	8.300231989783530e-002,-1.990864807220712e-005
	2.681326350827762e-004,2.623317837621773e-005
	-2.681326350827762e-004,-2.623317837621773e-005
	0.000000000000000e+000,0.000000000000000e+000
	0.000000000000000e+000,0.000000000000000e+000
	2.920569602132828e-018,-1.487270741370344e-021
10		1.258925411794167e+004,0.000000000000000e+000
	-1.245034795105286e+002,3.055857000491574e-002
	5.000000000000000e-001,0.000000000000000e+000
	1.866860615748478e-018,-6.824240053562478e-023
	1.245034795105286e+002,-3.055857000491574e-002
	-5.000000000000000e-001,0.000000000000000e+000
	0.000000000000000e+000,0.000000000000000e+000
	0.000000000000000e+000,0.000000000000000e+000
	1.000000000000000e+000,0.000000000000000e+000
	-8.300231967368577e-002,2.037238000327716e-005
	-2.681328799253174e-004,-2.684422753777982e-005
	8.327045255361108e-002,6.471847534502659e-006
	8.300231967368577e-002,-2.037238000327716e-005
	2.681328799253174e-004,2.684422753777982e-005
	-8.327045255361108e-002,-6.471847534502659e-006
	0.000000000000000e+000,0.000000000000000e+000
	-8.300231967368577e-002,2.037238000327716e-005
	8.300231967368577e-002,-2.037238000327716e-005
	2.681328799253160e-004,2.684422753777982e-005
	-2.681328799253160e-004,-2.684422753777982e-005
	0.000000000000000e+000,0.000000000000000e+000
	0.000000000000000e+000,0.000000000000000e+000
	2.303929616531697e-019,-1.306945367833784e-022
11		1.288249551693133e+004,0.000000000000000e+000
	-1.245034791584586e+002,3.127037045207846e-002
	5.000000000000000e-001,0.000000000000000e+000
	1.694065894508601e-019,8.590270661363192e-022
	1.245034791584586e+002,-3.127037045207845e-002
	-5.000000000000000e-001,0.000000000000000e+000
	0.000000000000000e+000,0.000000000000000e+000
	0.000000000000000e+000,0.000000000000000e+000
	1.000000000000000e+000,0.000000000000000e+000
	-8.300231943897236e-002,2.084691363471896e-005
	-2.681331363069389e-004,-2.746950985846456e-005
	8.327045257527931e-002,6.622596223745595e-006
	8.300231943897238e-002,-2.084691363471897e-005
	2.681331363069318e-004,2.746950985846457e-005
	-8.327045257527931e-002,-6.622596223745595e-006
	0.000000000000000e+000,0.000000000000000e+000
	-8.300231943897236e-002,2.084691363471897e-005
	8.300231943897238e-002,-2.084691363471897e-005
	2.681331363069278e-004,2.746950985846456e-005
	-2.681331363069278e-004,-2.746950985846457e-005
	0.000000000000000e+000,0.000000000000000e+000
	0.000000000000000e+000,0.000000000000000e+000
	-5.651403824080692e-018,2.982813288866218e-021
12		1.318256738556407e+004,0.000000000000000e+000
	-1.245034787897959e+002,3.199875085526347e-002
	5.000000000000000e-001,0.000000000000000e+000
	3.076423664427619e-018,-7.510799961981491e-022
	1.245034787897960e+002,-3.199875085526348e-002
	-5.000000000000000e-001,0.000000000000000e+000
	0.000000000000000e+000,0.000000000000000e+000
	0.000000000000000e+000,0.000000000000000e+000
	1.000000000000000e+000,0.000000000000000e+000
	-8.300231919319730e-002,2.133250057017565e-005
	-2.681334047714321e-004,-2.810935687083138e-005
	8.327045259796873e-002,6.776856300655735e-006
	8.300231919319730e-002,-2.133250057017565e-005
	2.681334047714321e-004,2.810935687083138e-005
	-8.327045259796873e-002,-6.776856300655735e-006
	0.000000000000000e+000,0.000000000000000e+000
	-8.300231919319730e-002,2.133250057017565e-005
	8.300231919319730e-002,-2.133250057017565e-005
	2.681334047714312e-004,2.810935687083138e-005
	-2.681334047714312e-004,-2.810935687083138e-005
	0.000000000000000e+000,0.000000000000000e+000
	0.000000000000000e+000,0.000000000000000e+000
	4.431676380034499e-018,-2.410404304979523e-021
13		1.348962882591653e+004,0.000000000000000e+000
	-1.245034784037588e+002,3.274409741080794e-002
	5.000000000000000e-001,0.000000000000000e+000
	1.797403914073625e-018,-3.598235664605670e-023
	1.245034784037588e+002,-3.274409741080794e-002
	-5.000000000000000e-001,0.000000000000000e+000
	0.000000000000000e+000,0.000000000000000e+000
	0.000000000000000e+000,0.000000000000000e+000
	1.000000000000000e+000,0.000000000000000e+000
	-8.300231893583919e-002,2.182939827387196e-005
	-2.681336858882789e-004,-2.876410782980314e-005
	8.327045262172746e-002,6.934709555931178e-006
	8.300231893583919e-002,-2.182939827387196e-005
	2.681336858882789e-004,2.876410782980314e-005
	-8.327045262172746e-002,-6.934709555931178e-006
	0.000000000000000e+000,0.000000000000000e+000
	-8.300231893583919e-002,2.182939827387196e-005
	8.300231893583919e-002,-2.182939827387196e-005
	2.681336858882750e-004,2.876410782980314e-005
	-2.681336858882750e-004,-2.876410782980314e-005
	0.000000000000000e+000,0.000000000000000e+000
	0.000000000000000e+000,0.000000000000000e+000
	0.000000000000000e+000,-8.271806125530277e-024
14		1.380384264602884e+004,0.000000000000000e+000
	-1.245034779995283e+002,3.350680531068510e-002
	5.000000000000000e-001,0.000000000000000e+000
	1.839755561436340e-018,-5.955700410381799e-023
	1.245034779995283e+002,-3.350680531068510e-002
	-5.000000000000000e-001,0.000000000000000e+000
	0.000000000000000e+000,0.000000000000000e+000
	0.000000000000000e+000,0.000000000000000e+000
	1.000000000000000e+000,0.000000000000000e+000
	-8.300231866635216e-002,2.233787020712340e-005
	-2.681339802537519e-004,-2.943410989254154e-005
	8.327045264660592e-002,7.096239685418143e-006
	8.300231866635216e-002,-2.233787020712340e-005
	2.681339802537519e-004,2.943410989254154e-005
	-8.327045264660592e-002,-7.096239685418143e-006
	0.000000000000000e+000,0.000000000000000e+000
	-8.300231866635217e-002,2.233787020712340e-005
	8.300231866635217e-002,-2.233787020712340e-005
	2.681339802537458e-004,2.943410989254154e-005
	-2.681339802537458e-004,-2.943410989254154e-005
	0.000000000000000e+000,0.000000000000000e+000
	0.000000000000000e+000,0.000000000000000e+000
	1.423015351387225e-019,-9.264422860593910e-023
15		1.412537544622754e+004,0.000000000000000e+000
	-1.245034775762469e+002,3.428727895203722e-002
	5.000000000000000e-001,0.000000000000000e+000
	1.033380195650246e-018,4.210349317894911e-022
	1.245034775762469e+002,-3.428727895203722e-002
	-5.000000000000000e-001,0.000000000000000e+000
	0.000000000000000e+000,0.000000000000000e+000
	0.000000000000000e+000,0.000000000000000e+000
	1.000000000000000e+000,0.000000000000000e+000
	-8.300231838416462e-002,2.285818596802482e-005
	-2.681342884922354e-004,-3.011971830251224e-005
	8.327045267265686e-002,7.261532334487422e-006
	8.300231838416462e-002,-2.285818596802482e-005
	2.681342884922354e-004,3.011971830251224e-005
	-8.327045267265686e-002,-7.261532334487422e-006
	0.000000000000000e+000,0.000000000000000e+000
	-8.300231838416462e-002,2.285818596802482e-005
	8.300231838416462e-002,-2.285818596802482e-005
	2.681342884922317e-004,3.011971830251224e-005
	-2.681342884922317e-004,-3.011971830251224e-005
	0.000000000000000e+000,0.000000000000000e+000
	0.000000000000000e+000,0.000000000000000e+000
	-2.649519059011452e-018,1.525321049547783e-021
16		1.445439770745927e+004,0.000000000000000e+000
	-1.245034771330170e+002,3.508593215158914e-002
	5.000000000000000e-001,0.000000000000000e+000
	2.717281694791796e-018,-6.021874859386042e-022
	1.245034771330170e+002,-3.508593215158914e-002
	-5.000000000000000e-001,0.000000000000000e+000
	0.000000000000000e+000,0.000000000000000e+000
	0.000000000000000e+000,0.000000000000000e+000
	1.000000000000000e+000,0.000000000000000e+000
	-8.300231808867799e-002,2.339062143439276e-005
	-2.681346112575451e-004,-3.082129657783726e-005
	8.327045269993554e-002,7.430675143444493e-006
	8.300231808867799e-002,-2.339062143439276e-005
	2.681346112575522e-004,3.082129657783725e-005
	-8.327045269993554e-002,-7.430675143444493e-006
	0.000000000000000e+000,0.000000000000000e+000
	-8.300231808867799e-002,2.339062143439276e-005
	8.300231808867799e-002,-2.339062143439276e-005
	2.681346112575477e-004,3.082129657783726e-005
	-2.681346112575477e-004,-3.082129657783726e-005
	0.000000000000000e+000,0.000000000000000e+000
	0.000000000000000e+000,0.000000000000000e+000
	3.171291354520101e-018,-1.902515408871964e-021
17		1.479108388168207e+004,0.000000000000000e+000
	-1.245034766688983e+002,3.590318836505579e-002
	5.000000000000000e-001,0.000000000000000e+000
	1.663572708407446e-018,4.632211430296955e-023
	1.245034766688982e+002,-3.590318836505579e-002
	-5.000000000000000e-001,0.000000000000000e+000
	0.000000000000000e+000,0.000000000000000e+000
	0.000000000000000e+000,0.000000000000000e+000
	1.000000000000000e+000,0.000000000000000e+000
	-8.300231777926551e-002,2.393545891003719e-005
	-2.681349492343222e-004,-3.153921670403454e-005
	8.327045272849983e-002,7.603757793997352e-006
	8.300231777926551e-002,-2.393545891003719e-005
	2.681349492343222e-004,3.153921670403454e-005
	-8.327045272849983e-002,-7.603757793997352e-006
	0.000000000000000e+000,0.000000000000000e+000
	-8.300231777926551e-002,2.393545891003720e-005
	8.300231777926551e-002,-2.393545891003720e-005
	2.681349492343219e-004,3.153921670403455e-005
	-2.681349492343219e-004,-3.153921670403455e-005
	0.000000000000000e+000,0.000000000000000e+000
	0.000000000000000e+000,0.000000000000000e+000
	-4.743384504624082e-019,2.729696021424991e-022
18		1.513561248436207e+004,0.000000000000000e+000
	-1.245034761829063e+002,3.673948091166036e-002
	5.000000000000000e-001,0.000000000000000e+000
	1.312901068244166e-018,2.721424215299461e-022
	1.245034761829063e+002,-3.673948091166036e-002
	-5.000000000000000e-001,0.000000000000000e+000
	0.000000000000000e+000,0.000000000000000e+000
	0.000000000000000e+000,0.000000000000000e+000
	1.000000000000000e+000,0.000000000000000e+000
	-8.300231745527084e-002,2.449298727444024e-005
	-2.681353031394558e-004,-3.227385933124695e-005
	8.327045275841030e-002,7.780872056806714e-006
	8.300231745527086e-002,-2.449298727444024e-005
	2.681353031394486e-004,3.227385933124695e-005
	-8.327045275841030e-002,-7.780872056806714e-006
	0.000000000000000e+000,0.000000000000000e+000
	-8.300231745527086e-002,2.449298727444024e-005
	8.300231745527086e-002,-2.449298727444024e-005
	2.681353031394481e-004,3.227385933124695e-005
	-2.681353031394481e-004,-3.227385933124695e-005
	0.000000000000000e+000,0.000000000000000e+000
	0.000000000000000e+000,0.000000000000000e+000
	-1.680513367352532e-018,1.032321404466179e-021
19		1.548816618912480e+004,0.000000000000000e+000
	-1.245034756740102e+002,3.759525320388182e-002
	5.000000000000000e-001,0.000000000000000e+000
	-1.423015351387225e-019,1.232499112704011e-021
	1.245034756740102e+002,-3.759525320388182e-002
	-5.000000000000000e-001,0.000000000000000e+000
	0.000000000000000e+000,0.000000000000000e+000
	0.000000000000000e+000,0.000000000000000e+000
	1.000000000000000e+000,0.000000000000000e+000
	-8.300231711600681e-002,2.506350213592121e-005
	-2.681356737236163e-004,-3.302561397606499e-005
	8.327045278973042e-002,7.962111840143784e-006
	8.300231711600681e-002,-2.506350213592121e-005
	2.681356737236091e-004,3.302561397606500e-005
	-8.327045278973042e-002,-7.962111840143784e-006
	0.000000000000000e+000,0.000000000000000e+000
	-8.300231711600681e-002,2.506350213592121e-005
	8.300231711600681e-002,-2.506350213592122e-005
	2.681356737236061e-004,3.302561397606499e-005
	-2.681356737236061e-004,-3.302561397606500e-005
	0.000000000000000e+000,0.000000000000000e+000
	0.000000000000000e+000,0.000000000000000e+000
	-6.708500942254059e-018,4.255017070972774e-021
20		1.584893192461112e+004,0.000000000000000e+000
	-1.245034751411306e+002,3.847095898255386e-002
	5.000000000000000e-001,0.000000000000000e+000
	3.740497495074990e-018,-1.348304398461435e-021
	1.245034751411306e+002,-3.847095898255386e-002
	-5.000000000000000e-001,0.000000000000000e+000
	0.000000000000000e+000,0.000000000000000e+000
	0.000000000000000e+000,0.000000000000000e+000
	1.000000000000000e+000,0.000000000000000e+000
	-8.300231676075376e-002,2.564730598836924e-005
	-2.681360617728541e-004,-3.379487922805064e-005
	8.327045282252661e-002,8.147573239681402e-006
	8.300231676075376e-002,-2.564730598836924e-005
	2.681360617728541e-004,3.379487922805064e-005
	-8.327045282252661e-002,-8.147573239681402e-006
	0.000000000000000e+000,0.000000000000000e+000
	-8.300231676075376e-002,2.564730598836924e-005
	8.300231676075374e-002,-2.564730598836924e-005
	2.681360617728541e-004,3.379487922805064e-005
	-2.681360617728541e-004,-3.379487922805064e-005
	0.000000000000000e+000,0.000000000000000e+000
	0.000000000000000e+000,0.000000000000000e+000
	6.722053469410128e-018,-4.393983413881683e-021
21		1.621810097358929e+004,0.000000000000000e+000
	-1.245034745831372e+002,3.936706255743962e-002
	5.000000000000000e-001,0.000000000000000e+000
	2.161628081392975e-018,-2.911675756186657e-022
	1.245034745831372e+002,-3.936706255743962e-002
	-5.000000000000000e-001,0.000000000000000e+000
	0.000000000000000e+000,0.000000000000000e+000
	0.000000000000000e+000,0.000000000000000e+000
	1.000000000000000e+000,0.000000000000000e+000
	-8.300231638875813e-002,2.624470837162642e-005
	-2.681364681102971e-004,-3.458206296107138e-005
	8.327045285686843e-002,8.337354589444958e-006
	8.300231638875813e-002,-2.624470837162642e-005
	2.681364681102971e-004,3.458206296107138e-005
	-8.327045285686843e-002,-8.337354589444958e-006
	0.000000000000000e+000,0.000000000000000e+000
	-8.300231638875813e-002,2.624470837162642e-005
	8.300231638875813e-002,-2.624470837162642e-005
	2.681364681102962e-004,3.458206296107138e-005
	-2.681364681102962e-004,-3.458206296107138e-005
	0.000000000000000e+000,0.000000000000000e+000
	0.000000000000000e+000,0.000000000000000e+000
	1.253608761936365e-018,-8.553047533798306e-022
22		1.659586907437559e+004,0.000000000000000e+000
	-1.245034739988464e+002,4.028403905341001e-002
	5.000000000000000e-001,0.000000000000000e+000
	2.930733997499879e-019,1.021568056502989e-021
	1.245034739988464e+002,-4.028403905341001e-002
	-5.000000000000000e-001,0.000000000000000e+000
	0.000000000000000e+000,0.000000000000000e+000
	0.000000000000000e+000,0.000000000000000e+000
	1.000000000000000e+000,0.000000000000000e+000
	-8.300231599923090e-002,2.685602603560667e-005
	-2.681368935978372e-004,-3.538758254955676e-005
	8.327045289282874e-002,8.531556513950091e-006
	8.300231599923090e-002,-2.685602603560667e-005
	2.681368935978301e-004,3.538758254955676e-005
	-8.327045289282874e-002,-8.531556513950091e-006
	0.000000000000000e+000,0.000000000000000e+000
	-8.300231599923090e-002,2.685602603560667e-005
	8.300231599923090e-002,-2.685602603560668e-005
	2.681368935978282e-004,3.538758254955676e-005
	-2.681368935978282e-004,-3.538758254955677e-005
	0.000000000000000e+000,0.000000000000000e+000
	0.000000000000000e+000,0.000000000000000e+000
	-5.210946691508456e-018,3.548604827852489e-021
23		1.698243652461743e+004,0.000000000000000e+000
	-1.245034733870187e+002,4.122237466235588e-002
	5.000000000000000e-001,0.000000000000000e+000
	1.753358200816402e-018,-8.271806125530277e-024
	1.245034733870187e+002,-4.122237466235588e-002
	-5.000000000000000e-001,0.000000000000000e+000
	0.000000000000000e+000,0.000000000000000e+000
	0.000000000000000e+000,0.000000000000000e+000
	1.000000000000000e+000,0.000000000000000e+000
	-8.300231559134583e-002,2.748158310823725e-005
	-2.681373391379678e-004,-3.621186508979206e-005
	8.327045293048380e-002,8.730281981554813e-006
	8.300231559134583e-002,-2.748158310823725e-005
	2.681373391379678e-004,3.621186508979206e-005
	-8.327045293048380e-002,-8.730281981554813e-006
	0.000000000000000e+000,0.000000000000000e+000
	-8.300231559134583e-002,2.748158310823725e-005
	8.300231559134583e-002,-2.748158310823725e-005
	2.681373391379654e-004,3.621186508979206e-005
	-2.681373391379654e-004,-3.621186508979206e-005
	0.000000000000000e+000,0.000000000000000e+000
	0.000000000000000e+000,0.000000000000000e+000
	-1.626303258728257e-019,1.042247571816815e-022
24		1.737800828749374e+004,0.000000000000000e+000
	-1.245034727463566e+002,4.218256690096774e-002
	5.000000000000000e-001,0.000000000000000e+000
	2.984944106124154e-018,-9.206520217715198e-022
	1.245034727463566e+002,-4.218256690096774e-002
	-5.000000000000000e-001,0.000000000000000e+000
	0.000000000000000e+000,0.000000000000000e+000
	0.000000000000000e+000,0.000000000000000e+000
	1.000000000000000e+000,0.000000000000000e+000
	-8.300231516423773e-002,2.812171126731182e-005
	-2.681378056757547e-004,-3.705534762636617e-005
	8.327045296991348e-002,8.933636359054346e-006
	8.300231516423773e-002,-2.812171126731182e-005
	2.681378056757618e-004,3.705534762636617e-005
	-8.327045296991348e-002,-8.933636359054346e-006
	0.000000000000000e+000,0.000000000000000e+000
	-8.300231516423773e-002,2.812171126731182e-005
	8.300231516423773e-002,-2.812171126731182e-005
	2.681378056757577e-004,3.705534762636617e-005
	-2.681378056757577e-004,-3.705534762636617e-005
	0.000000000000000e+000,0.000000000000000e+000
	0.000000000000000e+000,0.000000000000000e+000
	4.099639464710814e-018,-2.943108619463673e-021
25		1.778279410038922e+004,0.000000000000000e+000
	-1.245034720755010e+002,4.316512487451966e-002
	5.000000000000000e-001,0.000000000000000e+000
	3.269547176401599e-018,-1.158052857574239e-021
	1.245034720755010e+002,-4.316512487451967e-002
	-5.000000000000000e-001,0.000000000000000e+000
	0.000000000000000e+000,0.000000000000000e+000
	0.000000000000000e+000,0.000000000000000e+000
	1.000000000000000e+000,0.000000000000000e+000
	-8.300231471700065e-002,2.877674991634645e-005
	-2.681382942007912e-004,-3.791847738389407e-005
	8.327045301120144e-002,9.141727467547626e-006
	8.300231471700063e-002,-2.877674991634644e-005
	2.681382942007983e-004,3.791847738389407e-005
	-8.327045301120144e-002,-9.141727467547626e-006
	0.000000000000000e+000,0.000000000000000e+000
	-8.300231471700065e-002,2.877674991634645e-005
	8.300231471700065e-002,-2.877674991634645e-005
	2.681382942007937e-004,3.791847738389407e-005
	-2.681382942007937e-004,-3.791847738389407e-005
	0.000000000000000e+000,0.000000000000000e+000