Title: * E:\Eigene Dateien\Visual Studio Projects\git\ltspice2matlab\testdata\XVII\text\ac\ac_stepped.asc
Date: Thu Feb 21 17:00:55 2019
Plotname: AC Analysis
Flags: complex forward log stepped
No. Variables: 23
No. Points:         1203
Offset:   0.0000000000000000e+000
Command: Linear Technology Corporation LTspice XVII -- Alternate Solver
Variables:
	0	frequency	frequency
	1	V(uc1)	voltage
	2	V(ue1)	voltage
	3	V(ue12)	voltage
	4	V(uc2)	voltage
	5	V(ue2)	voltage
	6	V(vee)	voltage
	7	V(vcc)	voltage
	8	V(ued)	voltage
	9	Ic(Q2)	device_current
	10	Ib(Q2)	device_current
	11	Ie(Q2)	device_current
	12	Ic(Q1)	device_current
	13	Ib(Q1)	device_current
	14	Ie(Q1)	device_current
	15	I(I1)	device_current
	16	I(R2)	device_current
	17	I(R1)	device_current
	18	I(E2)	device_current
	19	I(E1)	device_current
	20	I(V1)	device_current
	21	I(Ve)	device_current
	22	I(Vc)	device_current
Values:
0		1.000000000000000e+004,0.000000000000000e+000
	-6.717225719335099e+001,1.227918434150873e-002
	5.000000000000000e-001,0.000000000000000e+000
	-2.198050498124909e-018,2.249931266144235e-022
	6.717225719335099e+001,-1.227918434150873e-002
	-5.000000000000000e-001,0.000000000000000e+000
	0.000000000000000e+000,0.000000000000000e+000
	0.000000000000000e+000,0.000000000000000e+000
	1.000000000000000e+000,0.000000000000000e+000
	-4.478150479556733e-002,8.186122894339153e-006
	-1.280042652198593e-004,-1.100056596850802e-005
	4.490950906078718e-002,2.814443074168869e-006
	4.478150479556733e-002,-8.186122894339153e-006
	1.280042652198593e-004,1.100056596850802e-005
	-4.490950906078718e-002,-2.814443074168869e-006
	0.000000000000000e+000,0.000000000000000e+000
	-4.478150479556733e-002,8.186122894339151e-006
	4.478150479556733e-002,-8.186122894339153e-006
	1.280042652198532e-004,1.100056596850802e-005
	-1.280042652198532e-004,-1.100056596850802e-005
	0.000000000000000e+000,0.000000000000000e+000
	0.000000000000000e+000,0.000000000000000e+000
	-1.646632049462360e-018,6.270029043151950e-022
1		1.023292992280754e+004,0.000000000000000e+000
	-6.717225708834489e+001,1.256520326809211e-002
	5.000000000000000e-001,0.000000000000000e+000
	-8.021402010498224e-019,-3.445207251283360e-022
	6.717225708834491e+001,-1.256520326809211e-002
	-5.000000000000000e-001,0.000000000000000e+000
	0.000000000000000e+000,0.000000000000000e+000
	0.000000000000000e+000,0.000000000000000e+000
	1.000000000000000e+000,0.000000000000000e+000
	-4.478150472556327e-002,8.376802178728070e-006
	-1.280043382589528e-004,-1.125680205313464e-005
	4.490950906382222e-002,2.879999874406566e-006
	4.478150472556326e-002,-8.376802178728068e-006
	1.280043382589599e-004,1.125680205313464e-005
	-4.490950906382222e-002,-2.879999874406566e-006
	0.000000000000000e+000,0.000000000000000e+000
	-4.478150472556327e-002,8.376802178728072e-006
	4.478150472556326e-002,-8.376802178728070e-006
	1.280043382589530e-004,1.125680205313464e-005
	-1.280043382589530e-004,-1.125680205313464e-005
	0.000000000000000e+000,0.000000000000000e+000
	0.000000000000000e+000,0.000000000000000e+000
	3.577867169202165e-018,-1.364848010712496e-021
2		1.047128548050900e+004,0.000000000000000e+000
	-6.717225697839002e+001,1.285788442993010e-002
	5.000000000000000e-001,0.000000000000000e+000
	-1.478919525906008e-018,-6.741521992307176e-023
	6.717225697839002e+001,-1.285788442993010e-002
	-5.000000000000000e-001,0.000000000000000e+000
	0.000000000000000e+000,0.000000000000000e+000
	0.000000000000000e+000,0.000000000000000e+000
	1.000000000000000e+000,0.000000000000000e+000
	-4.478150465226002e-002,8.571922953286732e-006
	-1.280044147402793e-004,-1.151900664193258e-005
	4.490950906700029e-002,2.947083688645847e-006
	4.478150465226001e-002,-8.571922953286732e-006
	1.280044147402864e-004,1.151900664193258e-005
	-4.490950906700029e-002,-2.947083688645847e-006
	0.000000000000000e+000,0.000000000000000e+000
	-4.478150465226001e-002,8.571922953286734e-006
	4.478150465226001e-002,-8.571922953286734e-006
	1.280044147402792e-004,1.151900664193258e-005
	-1.280044147402792e-004,-1.151900664193258e-005
	0.000000000000000e+000,0.000000000000000e+000
	0.000000000000000e+000,0.000000000000000e+000
	1.043544591017298e-018,-4.020097777007715e-022
3		1.071519305237606e+004,0.000000000000000e+000
	-6.717225686325313e+001,1.315738301031734e-002
	5.000000000000000e-001,0.000000000000000e+000
	-1.460284801066414e-018,-7.713459212056983e-023
	6.717225686325313e+001,-1.315738301031735e-002
	-5.000000000000000e-001,0.000000000000000e+000
	0.000000000000000e+000,0.000000000000000e+000
	0.000000000000000e+000,0.000000000000000e+000
	1.000000000000000e+000,0.000000000000000e+000
	-4.478150457550208e-002,8.771588673544897e-006
	-1.280044948260658e-004,-1.178731875915408e-005
	4.490950907032815e-002,3.015730085609180e-006
	4.478150457550208e-002,-8.771588673544895e-006
	1.280044948260658e-004,1.178731875915408e-005
	-4.490950907032815e-002,-3.015730085609180e-006
	0.000000000000000e+000,0.000000000000000e+000
	-4.478150457550208e-002,8.771588673544897e-006
	4.478150457550208e-002,-8.771588673544897e-006
	1.280044948260591e-004,1.178731875915408e-005
	-1.280044948260591e-004,-1.178731875915408e-005
	0.000000000000000e+000,0.000000000000000e+000
	0.000000000000000e+000,0.000000000000000e+000
	1.121471622164694e-018,-4.392329052656577e-022
4		1.096478196143185e+004,0.000000000000000e+000
	-6.717225674269000e+001,1.346385780722462e-002
	5.000000000000000e-001,0.000000000000000e+000
	-1.965963470577231e-018,1.437226314310886e-022
	6.717225674269000e+001,-1.346385780722462e-002
	-5.000000000000000e-001,0.000000000000000e+000
	0.000000000000000e+000,0.000000000000000e+000
	0.000000000000000e+000,0.000000000000000e+000
	1.000000000000000e+000,0.000000000000000e+000
	-4.478150449512667e-002,8.975905204816412e-006
	-1.280045786861687e-004,-1.206188066733722e-005
	4.490950907381284e-002,3.085975462520807e-006
	4.478150449512667e-002,-8.975905204816412e-006
	1.280045786861687e-004,1.206188066733722e-005
	-4.490950907381284e-002,-3.085975462520807e-006
	0.000000000000000e+000,0.000000000000000e+000
	-4.478150449512667e-002,8.975905204816412e-006
	4.478150449512667e-002,-8.975905204816412e-006
	1.280045786861651e-004,1.206188066733722e-005
	-1.280045786861651e-004,-1.206188066733722e-005
	0.000000000000000e+000,0.000000000000000e+000
	0.000000000000000e+000,0.000000000000000e+000
	-7.724940478959219e-019,3.275635225709990e-022
5		1.122018454301963e+004,0.000000000000000e+000
	-6.717225661644491e+001,1.377747131749497e-002
	5.000000000000000e-001,0.000000000000000e+000
	-2.176874674443552e-018,2.417435340186223e-022
	6.717225661644491e+001,-1.377747131749497e-002
	-5.000000000000000e-001,0.000000000000000e+000
	0.000000000000000e+000,0.000000000000000e+000
	0.000000000000000e+000,0.000000000000000e+000
	1.000000000000000e+000,0.000000000000000e+000
	-4.478150441096327e-002,9.184980878329977e-006
	-1.280046664984797e-004,-1.234283794273499e-005
	4.490950907746175e-002,3.157857064405010e-006
	4.478150441096327e-002,-9.184980878329979e-006
	1.280046664984797e-004,1.234283794273499e-005
	-4.490950907746175e-002,-3.157857064405010e-006
	0.000000000000000e+000,0.000000000000000e+000
	-4.478150441096327e-002,9.184980878329977e-006
	4.478150441096327e-002,-9.184980878329979e-006
	1.280046664984759e-004,1.234283794273499e-005
	-1.280046664984759e-004,-1.234283794273499e-005
	0.000000000000000e+000,0.000000000000000e+000
	0.000000000000000e+000,0.000000000000000e+000
	-1.558540622947913e-018,6.642260318800812e-022
6		1.148153621496883e+004,0.000000000000000e+000
	-6.717225648425007e+001,1.409838982300096e-002
	5.000000000000000e-001,0.000000000000000e+000
	-9.969577789183115e-019,-2.967510447533987e-022
	6.717225648425007e+001,-1.409838982300096e-002
	-5.000000000000000e-001,0.000000000000000e+000
	0.000000000000000e+000,0.000000000000000e+000
	0.000000000000000e+000,0.000000000000000e+000
	1.000000000000000e+000,0.000000000000000e+000
	-4.478150432283339e-002,9.398926548667308e-006
	-1.280047584492544e-004,-1.263033955250121e-005
	4.490950908128263e-002,3.231413003833898e-006
	4.478150432283339e-002,-9.398926548667306e-006
	1.280047584492544e-004,1.263033955250121e-005
	-4.490950908128263e-002,-3.231413003833898e-006
	0.000000000000000e+000,0.000000000000000e+000
	-4.478150432283339e-002,9.398926548667308e-006
	4.478150432283338e-002,-9.398926548667306e-006
	1.280047584492530e-004,1.263033955250121e-005
	-1.280047584492530e-004,-1.263033955250121e-005
	0.000000000000000e+000,0.000000000000000e+000
	0.000000000000000e+000,0.000000000000000e+000
	2.849418834563466e-018,-1.215128319840398e-021
7		1.174897554939529e+004,0.000000000000000e+000
	-6.717225634582509e+001,1.442678347880876e-002
	5.000000000000000e-001,0.000000000000000e+000
	-2.721516859528067e-018,5.107840282514946e-022
	6.717225634582508e+001,-1.442678347880876e-002
	-5.000000000000000e-001,0.000000000000000e+000
	0.000000000000000e+000,0.000000000000000e+000
	0.000000000000000e+000,0.000000000000000e+000
	1.000000000000000e+000,0.000000000000000e+000
	-4.478150423055005e-002,9.617855652539172e-006
	-1.280048547335432e-004,-1.292453793367435e-005
	4.490950908528359e-002,3.306682281135177e-006
	4.478150423055005e-002,-9.617855652539173e-006
	1.280048547335432e-004,1.292453793367435e-005
	-4.490950908528359e-002,-3.306682281135177e-006
	0.000000000000000e+000,0.000000000000000e+000
	-4.478150423055005e-002,9.617855652539172e-006
	4.478150423055006e-002,-9.617855652539173e-006
	1.280048547335364e-004,1.292453793367435e-005
	-1.280048547335364e-004,-1.292453793367435e-005
	0.000000000000000e+000,0.000000000000000e+000
	0.000000000000000e+000,0.000000000000000e+000
	-3.591419696358233e-018,1.593977040389684e-021
8		1.202264434617413e+004,0.000000000000000e+000
	-6.717225620087633e+001,1.476282640339578e-002
	5.000000000000000e-001,0.000000000000000e+000
	-1.208716015731887e-018,-2.086563095165012e-022
	6.717225620087633e+001,-1.476282640339578e-002
	-5.000000000000000e-001,0.000000000000000e+000
	0.000000000000000e+000,0.000000000000000e+000
	0.000000000000000e+000,0.000000000000000e+000
	1.000000000000000e+000,0.000000000000000e+000
	-4.478150413391755e-002,9.841884268930517e-006
	-1.280049555555618e-004,-1.322558907400113e-005
	4.490950908947311e-002,3.383704805070610e-006
	4.478150413391755e-002,-9.841884268930517e-006
	1.280049555555618e-004,1.322558907400113e-005
	-4.490950908947311e-002,-3.383704805070610e-006
	0.000000000000000e+000,0.000000000000000e+000
	-4.478150413391755e-002,9.841884268930519e-006
	4.478150413391755e-002,-9.841884268930517e-006
	1.280049555555578e-004,1.322558907400113e-005
	-1.280049555555578e-004,-1.322558907400113e-005
	0.000000000000000e+000,0.000000000000000e+000
	0.000000000000000e+000,0.000000000000000e+000
	2.059984127722458e-018,-9.173432993213077e-022
9		1.230268770812381e+004,0.000000000000000e+000
	-6.717225604909635e+001,1.510669677096969e-002
	5.000000000000000e-001,0.000000000000000e+000
	-1.123165688059202e-018,-2.551852189726090e-022
	6.717225604909635e+001,-1.510669677096969e-002
	-5.000000000000000e-001,0.000000000000000e+000
	0.000000000000000e+000,0.000000000000000e+000
	0.000000000000000e+000,0.000000000000000e+000
	1.000000000000000e+000,0.000000000000000e+000
	-4.478150403273090e-002,1.007113118064646e-005
	-1.280050611291747e-004,-1.353365259464261e-005
	4.490950909386007e-002,3.462521413996150e-006
	4.478150403273089e-002,-1.007113118064646e-005
	1.280050611291818e-004,1.353365259464261e-005
	-4.490950909386007e-002,-3.462521413996150e-006
	0.000000000000000e+000,0.000000000000000e+000
	-4.478150403273090e-002,1.007113118064646e-005
	4.478150403273089e-002,-1.007113118064646e-005
	1.280050611291743e-004,1.353365259464261e-005
	-1.280050611291743e-004,-1.353365259464261e-005
	0.000000000000000e+000,0.000000000000000e+000
	0.000000000000000e+000,0.000000000000000e+000
	2.371692252312041e-018,-1.085260963669572e-021
10		1.258925411794167e+004,0.000000000000000e+000
	-6.717225589016320e+001,1.545857690593783e-002
	5.000000000000000e-001,0.000000000000000e+000
	-2.119276434030259e-018,2.413299437123458e-022
	6.717225589016320e+001,-1.545857690593783e-002
	-5.000000000000000e-001,0.000000000000000e+000
	0.000000000000000e+000,0.000000000000000e+000
	0.000000000000000e+000,0.000000000000000e+000
	1.000000000000000e+000,0.000000000000000e+000
	-4.478150392677546e-002,1.030571793729188e-005
	-1.280051716783252e-004,-1.384889183480683e-005
	4.490950909845379e-002,3.543173897514947e-006
	4.478150392677546e-002,-1.030571793729188e-005
	1.280051716783252e-004,1.384889183480683e-005
	-4.490950909845379e-002,-3.543173897514947e-006
	0.000000000000000e+000,0.000000000000000e+000
	-4.478150392677546e-002,1.030571793729188e-005
	4.478150392677546e-002,-1.030571793729188e-005
	1.280051716783215e-004,1.384889183480683e-005
	-1.280051716783215e-004,-1.384889183480683e-005
	0.000000000000000e+000,0.000000000000000e+000
	0.000000000000000e+000,0.000000000000000e+000
	-1.348476452028846e-018,6.418921553411495e-022
11		1.288249551693133e+004,0.000000000000000e+000
	-6.717225572373977e+001,1.581865337957697e-002
	5.000000000000000e-001,0.000000000000000e+000
	-2.488582799033134e-018,4.373717488874134e-022
	6.717225572373975e+001,-1.581865337957697e-002
	-5.000000000000000e-001,0.000000000000000e+000
	0.000000000000000e+000,0.000000000000000e+000
	0.000000000000000e+000,0.000000000000000e+000
	1.000000000000000e+000,0.000000000000000e+000
	-4.478150381582650e-002,1.054576891971798e-005
	-1.280052874374969e-004,-1.417147393835270e-005
	4.490950910326400e-002,3.625705018634721e-006
	4.478150381582651e-002,-1.054576891971798e-005
	1.280052874374898e-004,1.417147393835270e-005
	-4.490950910326400e-002,-3.625705018634721e-006
	0.000000000000000e+000,0.000000000000000e+000
	-4.478150381582650e-002,1.054576891971798e-005
	4.478150381582650e-002,-1.054576891971798e-005
	1.280052874374889e-004,1.417147393835270e-005
	-1.280052874374889e-004,-1.417147393835270e-005
	0.000000000000000e+000,0.000000000000000e+000
	0.000000000000000e+000,0.000000000000000e+000
	-2.720669826580813e-018,1.325143341309950e-021
12		1.318256738556407e+004,0.000000000000000e+000
	-6.717225554947302e+001,1.618711710895480e-002
	5.000000000000000e-001,0.000000000000000e+000
	-8.749850345136923e-019,-4.051117049978453e-022
	6.717225554947304e+001,-1.618711710895480e-002
	-5.000000000000000e-001,0.000000000000000e+000
	0.000000000000000e+000,0.000000000000000e+000
	0.000000000000000e+000,0.000000000000000e+000
	1.000000000000000e+000,0.000000000000000e+000
	-4.478150369964869e-002,1.079141140596987e-005
	-1.280054086522186e-004,-1.450156994241111e-005
	4.490950910830090e-002,3.710158536441244e-006
	4.478150369964869e-002,-1.079141140596986e-005
	1.280054086522186e-004,1.450156994241111e-005
	-4.490950910830090e-002,-3.710158536441244e-006
	0.000000000000000e+000,0.000000000000000e+000
	-4.478150369964869e-002,1.079141140596987e-005
	4.478150369964869e-002,-1.079141140596986e-005
	1.280054086522172e-004,1.450156994241111e-005
	-1.280054086522172e-004,-1.450156994241111e-005
	0.000000000000000e+000,0.000000000000000e+000
	0.000000000000000e+000,0.000000000000000e+000
	3.303428494291771e-018,-1.621274000603934e-021
13		1.348962882591653e+004,0.000000000000000e+000
	-6.717225536699336e+001,1.656416345815551e-002
	5.000000000000000e-001,0.000000000000000e+000
	-1.862625451012206e-018,1.197343936670508e-022
	6.717225536699336e+001,-1.656416345815551e-002
	-5.000000000000000e-001,0.000000000000000e+000
	0.000000000000000e+000,0.000000000000000e+000
	0.000000000000000e+000,0.000000000000000e+000
	1.000000000000000e+000,0.000000000000000e+000
	-4.478150357799558e-002,1.104277563877034e-005
	-1.280055355796203e-004,-1.483935486807029e-005
	4.490950911357520e-002,3.796579229299948e-006
	4.478150357799558e-002,-1.104277563877034e-005
	1.280055355796203e-004,1.483935486807029e-005
	-4.490950911357519e-002,-3.796579229299948e-006
	0.000000000000000e+000,0.000000000000000e+000
	-4.478150357799558e-002,1.104277563877034e-005
	4.478150357799558e-002,-1.104277563877034e-005
	1.280055355796190e-004,1.483935486807029e-005
	-1.280055355796190e-004,-1.483935486807029e-005
	0.000000000000000e+000,0.000000000000000e+000
	0.000000000000000e+000,0.000000000000000e+000
	-3.828588921589438e-019,2.059679725257039e-022
14		1.380384264602884e+004,0.000000000000000e+000
	-6.717225517591369e+001,1.694999234186318e-002
	5.000000000000000e-001,0.000000000000000e+000
	-2.043043468777372e-018,2.237523556955940e-022
	6.717225517591369e+001,-1.694999234186318e-002
	-5.000000000000000e-001,0.000000000000000e+000
	0.000000000000000e+000,0.000000000000000e+000
	0.000000000000000e+000,0.000000000000000e+000
	1.000000000000000e+000,0.000000000000000e+000
	-4.478150345060912e-002,1.129999489457545e-005
	-1.280056684889319e-004,-1.518500781317343e-005
	4.490950911909805e-002,3.885012918597975e-006
	4.478150345060912e-002,-1.129999489457545e-005
	1.280056684889319e-004,1.518500781317343e-005
	-4.490950911909805e-002,-3.885012918597975e-006
	0.000000000000000e+000,0.000000000000000e+000
	-4.478150345060913e-002,1.129999489457545e-005
	4.478150345060913e-002,-1.129999489457545e-005
	1.280056684889242e-004,1.518500781317343e-005
	-1.280056684889242e-004,-1.518500781317343e-005
	0.000000000000000e+000,0.000000000000000e+000
	0.000000000000000e+000,0.000000000000000e+000
	-1.063873381751401e-018,5.608284553109528e-022
15		1.412537544622754e+004,0.000000000000000e+000
	-6.717225497582872e+001,1.734480833135780e-002
	5.000000000000000e-001,0.000000000000000e+000
	-1.451814471593871e-018,-1.060859135599258e-022
	6.717225497582872e+001,-1.734480833135780e-002
	-5.000000000000000e-001,0.000000000000000e+000
	0.000000000000000e+000,0.000000000000000e+000
	0.000000000000000e+000,0.000000000000000e+000
	1.000000000000000e+000,0.000000000000000e+000
	-4.478150331721914e-002,1.156320555423854e-005
	-1.280058076620555e-004,-1.553871204727778e-005
	4.490950912488120e-002,3.975506493039247e-006
	4.478150331721914e-002,-1.156320555423854e-005
	1.280058076620555e-004,1.553871204727778e-005
	-4.490950912488120e-002,-3.975506493039247e-006
	0.000000000000000e+000,0.000000000000000e+000
	-4.478150331721915e-002,1.156320555423854e-005
	4.478150331721914e-002,-1.156320555423854e-005
	1.280058076620511e-004,1.553871204727778e-005
	-1.280058076620511e-004,-1.553871204727778e-005
	0.000000000000000e+000,0.000000000000000e+000
	0.000000000000000e+000,0.000000000000000e+000
	1.145188544687814e-018,-5.963972216507330e-022
16		1.445439770745927e+004,0.000000000000000e+000
	-6.717225476631403e+001,1.774882076298030e-002
	5.000000000000000e-001,0.000000000000000e+000
	-1.300195574035351e-018,-1.981097567064501e-022
	6.717225476631403e+001,-1.774882076298030e-002
	-5.000000000000000e-001,0.000000000000000e+000
	0.000000000000000e+000,0.000000000000000e+000
	0.000000000000000e+000,0.000000000000000e+000
	1.000000000000000e+000,0.000000000000000e+000
	-4.478150317754268e-002,1.183254717532020e-005
	-1.280059533942101e-004,-1.590065510882563e-005
	4.490950913093689e-002,4.068107933505425e-006
	4.478150317754268e-002,-1.183254717532020e-005
	1.280059533942101e-004,1.590065510882563e-005
	-4.490950913093689e-002,-4.068107933505425e-006
	0.000000000000000e+000,0.000000000000000e+000
	-4.478150317754268e-002,1.183254717532020e-005
	4.478150317754268e-002,-1.183254717532020e-005
	1.280059533942046e-004,1.590065510882563e-005
	-1.280059533942046e-004,-1.590065510882563e-005
	0.000000000000000e+000,0.000000000000000e+000
	0.000000000000000e+000,0.000000000000000e+000
	1.721170948820738e-018,-9.189976605464138e-022
17		1.479108388168207e+004,0.000000000000000e+000
	-6.717225454692522e+001,1.816224384912386e-002
	5.000000000000000e-001,0.000000000000000e+000
	-1.725406113557010e-018,4.880365614062863e-023
	6.717225454692522e+001,-1.816224384912386e-002
	-5.000000000000000e-001,0.000000000000000e+000
	0.000000000000000e+000,0.000000000000000e+000
	0.000000000000000e+000,0.000000000000000e+000
	1.000000000000000e+000,0.000000000000000e+000
	-4.478150303128348e-002,1.210816256608257e-005
	-1.280061059945052e-004,-1.627102890457855e-005
	4.490950913727798e-002,4.162866338495978e-006
	4.478150303128348e-002,-1.210816256608257e-005
	1.280061059945052e-004,1.627102890457855e-005
	-4.490950913727798e-002,-4.162866338495978e-006
	0.000000000000000e+000,0.000000000000000e+000
	-4.478150303128348e-002,1.210816256608257e-005
	4.478150303128348e-002,-1.210816256608257e-005
	1.280061059945019e-004,1.627102890457855e-005
	-1.280061059945020e-004,-1.627102890457855e-005
	0.000000000000000e+000,0.000000000000000e+000
	0.000000000000000e+000,0.000000000000000e+000
	1.321371397716709e-019,-5.955700410381799e-023
18		1.513561248436207e+004,0.000000000000000e+000
	-6.717225431719693e+001,1.858529679181051e-002
	5.000000000000000e-001,0.000000000000000e+000
	-1.461131834013668e-018,-1.087742505507231e-022
	6.717225431719693e+001,-1.858529679181051e-002
	-5.000000000000000e-001,0.000000000000000e+000
	0.000000000000000e+000,0.000000000000000e+000
	0.000000000000000e+000,0.000000000000000e+000
	1.000000000000000e+000,0.000000000000000e+000
	-4.478150287813129e-002,1.239019786120701e-005
	-1.280062657866300e-004,-1.665002981136780e-005
	4.490950914391792e-002,4.259831950160795e-006
	4.478150287813129e-002,-1.239019786120701e-005
	1.280062657866300e-004,1.665002981136780e-005
	-4.490950914391792e-002,-4.259831950160795e-006
	0.000000000000000e+000,0.000000000000000e+000
	-4.478150287813129e-002,1.239019786120701e-005
	4.478150287813128e-002,-1.239019786120701e-005
	1.280062657866286e-004,1.665002981136780e-005
	-1.280062657866286e-004,-1.665002981136780e-005
	0.000000000000000e+000,0.000000000000000e+000
	0.000000000000000e+000,0.000000000000000e+000
	1.118083490375676e-018,-6.187310981896647e-022
19		1.548816618912480e+004,0.000000000000000e+000
	-6.717225407664189e+001,1.901820389891321e-002
	5.000000000000000e-001,0.000000000000000e+000
	-1.395063264127833e-018,-1.517876424034806e-022
	6.717225407664189e+001,-1.901820389891321e-002
	-5.000000000000000e-001,0.000000000000000e+000
	0.000000000000000e+000,0.000000000000000e+000
	0.000000000000000e+000,0.000000000000000e+000
	1.000000000000000e+000,0.000000000000000e+000
	-4.478150271776125e-002,1.267880259927547e-005
	-1.280064331095303e-004,-1.703785878021467e-005
	4.490950915087079e-002,4.359056180939199e-006
	4.478150271776125e-002,-1.267880259927547e-005
	1.280064331095303e-004,1.703785878021467e-005
	-4.490950915087079e-002,-4.359056180939199e-006
	0.000000000000000e+000,0.000000000000000e+000
	-4.478150271776126e-002,1.267880259927547e-005
	4.478150271776126e-002,-1.267880259927547e-005
	1.280064331095251e-004,1.703785878021467e-005
	-1.280064331095251e-004,-1.703785878021467e-005
	0.000000000000000e+000,0.000000000000000e+000
	0.000000000000000e+000,0.000000000000000e+000
	1.362028979184915e-018,-7.758954145747400e-022
20		1.584893192461112e+004,0.000000000000000e+000
	-6.717225382474983e+001,1.946119470308491e-002
	5.000000000000000e-001,0.000000000000000e+000
	-2.263272035063491e-018,3.949787424940707e-022
	6.717225382474983e+001,-1.946119470308491e-002
	-5.000000000000000e-001,0.000000000000000e+000
	0.000000000000000e+000,0.000000000000000e+000
	0.000000000000000e+000,0.000000000000000e+000
	1.000000000000000e+000,0.000000000000000e+000
	-4.478150254983321e-002,1.297412980205660e-005
	-1.280066083181145e-004,-1.743472144287604e-005
	4.490950915815133e-002,4.460591640819439e-006
	4.478150254983322e-002,-1.297412980205661e-005
	1.280066083181074e-004,1.743472144287604e-005
	-4.490950915815133e-002,-4.460591640819439e-006
	0.000000000000000e+000,0.000000000000000e+000
	-4.478150254983322e-002,1.297412980205661e-005
	4.478150254983322e-002,-1.297412980205661e-005
	1.280066083181055e-004,1.743472144287604e-005
	-1.280066083181055e-004,-1.743472144287604e-005
	0.000000000000000e+000,0.000000000000000e+000
	0.000000000000000e+000,0.000000000000000e+000
	-1.880413142904547e-018,1.131583077972542e-021
21		1.621810097358929e+004,0.000000000000000e+000
	-6.717225356098648e+001,1.991450408345780e-002
	5.000000000000000e-001,0.000000000000000e+000
	-2.320870275476783e-018,4.437823986346994e-022
	6.717225356098648e+001,-1.991450408345780e-002
	-5.000000000000000e-001,0.000000000000000e+000
	0.000000000000000e+000,0.000000000000000e+000
	0.000000000000000e+000,0.000000000000000e+000
	1.000000000000000e+000,0.000000000000000e+000
	-4.478150237399099e-002,1.327633605563853e-005
	-1.280067917840176e-004,-1.784082822087168e-005
	4.490950916577500e-002,4.564492165233148e-006
	4.478150237399099e-002,-1.327633605563854e-005
	1.280067917840176e-004,1.784082822087168e-005
	-4.490950916577500e-002,-4.564492165233148e-006
	0.000000000000000e+000,0.000000000000000e+000
	-4.478150237399099e-002,1.327633605563853e-005
	4.478150237399099e-002,-1.327633605563854e-005
	1.280067917840104e-004,1.784082822087169e-005
	-1.280067917840104e-004,-1.784082822087169e-005
	0.000000000000000e+000,0.000000000000000e+000
	0.000000000000000e+000,0.000000000000000e+000
	-2.100641709190665e-018,1.289574574970170e-021
22		1.659586907437559e+004,0.000000000000000e+000
	-6.717225328479235e+001,2.037837239017717e-002
	5.000000000000000e-001,0.000000000000000e+000
	-8.529621778850804e-019,-5.244325083586196e-022
	6.717225328479235e+001,-2.037837239017717e-002
	-5.000000000000000e-001,0.000000000000000e+000
	0.000000000000000e+000,0.000000000000000e+000
	0.000000000000000e+000,0.000000000000000e+000
	1.000000000000000e+000,0.000000000000000e+000
	-4.478150218986157e-002,1.358558159345145e-005
	-1.280069838963965e-004,-1.825639443705099e-005
	4.490950917375796e-002,4.670812843599540e-006
	4.478150218986157e-002,-1.358558159345144e-005
	1.280069838963965e-004,1.825639443705098e-005
	-4.490950917375796e-002,-4.670812843599540e-006
	0.000000000000000e+000,0.000000000000000e+000
	-4.478150218986157e-002,1.358558159345145e-005
	4.478150218986156e-002,-1.358558159345144e-005
	1.280069838963955e-004,1.825639443705099e-005
	-1.280069838963955e-004,-1.825639443705098e-005
	0.000000000000000e+000,0.000000000000000e+000
	0.000000000000000e+000,0.000000000000000e+000
	3.384743657228184e-018,-2.092766949759160e-021
23		1.698243652461743e+004,0.000000000000000e+000
	-6.717225299558157e+001,2.085304557183585e-002
	5.000000000000000e-001,0.000000000000000e+000
	-1.661031609565683e-018,1.406207041340147e-023
	6.717225299558157e+001,-2.085304557183585e-002
	-5.000000000000000e-001,0.000000000000000e+000
	0.000000000000000e+000,0.000000000000000e+000
	0.000000000000000e+000,0.000000000000000e+000
	1.000000000000000e+000,0.000000000000000e+000
	-4.478150199705439e-002,1.390203038122390e-005
	-1.280071850627614e-004,-1.868164042975838e-005
	4.490950918211714e-002,4.779610048534475e-006
	4.478150199705439e-002,-1.390203038122390e-005
	1.280071850627614e-004,1.868164042975838e-005
	-4.490950918211714e-002,-4.779610048534475e-006
	0.000000000000000e+000,0.000000000000000e+000
	-4.478150199705439e-002,1.390203038122390e-005
	4.478150199705439e-002,-1.390203038122390e-005
	1.280071850627568e-004,1.868164042975838e-005
	-1.280071850627568e-004,-1.868164042975838e-005
	0.000000000000000e+000,0.000000000000000e+000
	0.000000000000000e+000,0.000000000000000e+000
	3.693063650028750e-019,-2.192028623265523e-022
24		1.737800828749374e+004,0.000000000000000e+000
	-6.717225269274073e+001,2.133877530587699e-002
	5.000000000000000e-001,0.000000000000000e+000
	-9.385125055577648e-019,-4.892773323251159e-022
	6.717225269274074e+001,-2.133877530587699e-002
	-5.000000000000000e-001,0.000000000000000e+000
	0.000000000000000e+000,0.000000000000000e+000
	0.000000000000000e+000,0.000000000000000e+000
	1.000000000000000e+000,0.000000000000000e+000
	-4.478150179516049e-002,1.422585020391799e-005
	-1.280073957097943e-004,-1.911679166965790e-005
	4.490950919087029e-002,4.890941465739904e-006
	4.478150179516048e-002,-1.422585020391799e-005
	1.280073957098014e-004,1.911679166965790e-005
	-4.490950919087029e-002,-4.890941465739904e-006
	0.000000000000000e+000,0.000000000000000e+000
	-4.478150179516049e-002,1.422585020391800e-005
	4.478150179516049e-002,-1.422585020391799e-005
	1.280073957097947e-004,1.911679166965790e-005
	-1.280073957097947e-004,-1.911679166965790e-005
	0.000000000000000e+000,0.000000000000000e+000
	0.000000000000000e+000,0.000000000000000e+000
	3.062871137271550e-018,-1.980270386451948e-021
25		1.778279410038922e+004,0.000000000000000e+000
	-6.717225237562744e+001,2.183581913203403e-002
	5.000000000000000e-001,0.000000000000000e+000
	-2.414043899674756e-018,5.517294685728695e-022
	6.717225237562744e+001,-2.183581913203403e-002
	-5.000000000000000e-001,0.000000000000000e+000
	0.000000000000000e+000,0.000000000000000e+000
	0.000000000000000e+000,0.000000000000000e+000
	1.000000000000000e+000,0.000000000000000e+000
	-4.478150158375163e-002,1.455721275468935e-005
	-1.280076162843270e-004,-1.956207887927885e-005
	4.490950920003595e-002,5.004866124589502e-006
	4.478150158375163e-002,-1.455721275468935e-005
	1.280076162843270e-004,1.956207887927886e-005
	-4.490950920003595e-002,-5.004866124589502e-006
	0.000000000000000e+000,0.000000000000000e+000
	-4.478150158375163e-002,1.455721275468935e-005
	4.478150158375163e-002,-1.455721275468935e-005
	1.280076162843196e-004,1.956207887927886e-005
	-1.280076162843196e-004,-1.956207887927886e-005
	0.000000000000000e+000,0.000000000000000e+000